 BeH2 - geom Experimentale - base Def2TZVP (allE)
GAUSSIAN              3 MOL ORBITALS     45 PRIMITIVES        3 NUCLEI
  Be   1    (CENTRE  1)   0.00000000  0.00000000  0.00000000  CHARGE =  4.0
  H    2    (CENTRE  2)   0.00000000  0.00000000  2.50653274  CHARGE =  1.0
  H    3    (CENTRE  3)   0.00000000  0.00000000 -2.50653274  CHARGE =  1.0
CENTRE ASSIGNMENTS    1  1  1  1  1  1  1  1  1  1  1  1  1  1  1  1  1  1  1  1
CENTRE ASSIGNMENTS    1  1  1  1  1  1  1  1  1  2  2  2  2  2  2  2  2  3  3  3
CENTRE ASSIGNMENTS    3  3  3  3  3
TYPE ASSIGNMENTS      1  1  1  1  1  1  1  1  1  1  1  2  2  3  3  4  4  2  3  4
TYPE ASSIGNMENTS      2  3  4  5  6  7  8  9 10  1  1  1  1  1  2  3  4  1  1  1
TYPE ASSIGNMENTS      1  1  2  3  4
EXPONENTS  0.4700237D+04 0.7048285D+03 0.1604311D+03 0.4542535D+02 0.1479833D+02
EXPONENTS  0.5351245D+01 0.2154204D+01 0.9336374D+00 0.1879143D+00 0.7464827D-01
EXPONENTS  0.3265048D-01 0.7169569D+00 0.1954193D+00 0.7169569D+00 0.1954193D+00
EXPONENTS  0.7169569D+00 0.1954193D+00 0.3631692D+01 0.3631692D+01 0.3631692D+01
EXPONENTS  0.6051547D-01 0.6051547D-01 0.6051547D-01 0.1800000D+00 0.1800000D+00
EXPONENTS  0.1800000D+00 0.1800000D+00 0.1800000D+00 0.1800000D+00 0.3406134D+02
EXPONENTS  0.5123575D+01 0.1164663D+01 0.3272304D+00 0.1030724D+00 0.8000000D+00
EXPONENTS  0.8000000D+00 0.8000000D+00 0.3406134D+02 0.5123575D+01 0.1164663D+01
EXPONENTS  0.3272304D+00 0.1030724D+00 0.8000000D+00 0.8000000D+00 0.8000000D+00
MO    1     MO 0.0        OCC NO =    2.0000000  ORB. ENERGY =   -4.680124
  0.15256556D+00  0.28439356D+00  0.48270295D+00  0.73594807D+00  0.93698154D+00
  0.86981836D+00  0.47762601D+00  0.11911138D+00  0.23096523D-02 -0.53291671D-03
  0.10140604D-03 -0.00000000D+00 -0.00000000D+00 -0.00000000D+00 -0.00000000D+00
 -0.00000000D+00 -0.00000000D+00  0.00000000D+00  0.00000000D+00  0.00000000D+00
  0.00000000D+00  0.00000000D+00  0.00000000D+00 -0.42693238D-04 -0.42693238D-04
  0.85386477D-04  0.00000000D+00  0.00000000D+00  0.00000000D+00  0.24114216D-03
  0.43521251D-03  0.64251911D-03  0.57917948D-04 -0.16838859D-05  0.00000000D+00
  0.00000000D+00 -0.76266930D-03  0.24114216D-03  0.43521251D-03  0.64251911D-03
  0.57917948D-04 -0.16838859D-05  0.00000000D+00  0.00000000D+00  0.76266930D-03
MO    2     MO 0.0        OCC NO =    2.0000000  ORB. ENERGY =   -0.489996
 -0.26017617D-01 -0.48498773D-01 -0.82317267D-01 -0.12550417D+00 -0.15978722D+00
 -0.14833361D+00 -0.14830444D+00 -0.36984474D-01  0.65546206D-01  0.21949431D-01
  0.75951317D-03 -0.00000000D+00 -0.00000000D+00 -0.00000000D+00 -0.00000000D+00
 -0.00000000D+00 -0.00000000D+00  0.00000000D+00  0.00000000D+00  0.00000000D+00
  0.00000000D+00  0.00000000D+00  0.00000000D+00 -0.22687310D-02 -0.22687310D-02
  0.45374619D-02  0.00000000D+00  0.00000000D+00  0.00000000D+00  0.30290305D-01
  0.54667835D-01  0.80707995D-01  0.63262895D-01  0.14519898D-01  0.00000000D+00
  0.00000000D+00 -0.21289139D-01  0.30290305D-01  0.54667835D-01  0.80707995D-01
  0.63262895D-01  0.14519898D-01  0.00000000D+00  0.00000000D+00  0.21289139D-01
MO    3     MO 0.0        OCC NO =    2.0000000  ORB. ENERGY =   -0.448751
  0.00000000D+00  0.00000000D+00  0.00000000D+00  0.00000000D+00  0.00000000D+00
  0.00000000D+00  0.00000000D+00  0.00000000D+00  0.00000000D+00  0.00000000D+00
  0.00000000D+00 -0.00000000D+00 -0.00000000D+00 -0.00000000D+00 -0.00000000D+00
 -0.10110416D+00 -0.60643865D-01  0.00000000D+00  0.00000000D+00 -0.16726057D+00
  0.00000000D+00  0.00000000D+00 -0.37383388D-02  0.00000000D+00  0.00000000D+00
  0.00000000D+00  0.00000000D+00  0.00000000D+00  0.00000000D+00 -0.34840035D-01
 -0.62879170D-01 -0.92830670D-01 -0.67173128D-01 -0.16972137D-01  0.00000000D+00
  0.00000000D+00  0.15010284D-01  0.34840035D-01  0.62879170D-01  0.92830670D-01
  0.67173128D-01  0.16972137D-01  0.00000000D+00  0.00000000D+00  0.15010284D-01
END DATA
 TOTAL ENERGY =      -15.769383595715 THE VIRIAL(-V/T)=   2.00034072
