 BeH2 - geom Coudee, dist Be-H de la molec lineaire (expe
GAUSSIAN              3 MOL ORBITALS     45 PRIMITIVES        3 NUCLEI
  Be   1    (CENTRE  1)  -0.00000000 -0.00000000  0.41775546  CHARGE =  4.0
  H    2    (CENTRE  2)   0.00000000  2.17072103 -0.83551091  CHARGE =  1.0
  H    3    (CENTRE  3)  -0.00000000 -2.17072103 -0.83551091  CHARGE =  1.0
CENTRE ASSIGNMENTS    1  1  1  1  1  1  1  1  1  1  1  1  1  1  1  1  1  1  1  1
CENTRE ASSIGNMENTS    1  1  1  1  1  1  1  1  1  2  2  2  2  2  2  2  2  3  3  3
CENTRE ASSIGNMENTS    3  3  3  3  3
TYPE ASSIGNMENTS      1  1  1  1  1  1  1  1  1  1  1  2  2  3  3  4  4  2  3  4
TYPE ASSIGNMENTS      2  3  4  5  6  7  8  9 10  1  1  1  1  1  2  3  4  1  1  1
TYPE ASSIGNMENTS      1  1  2  3  4
EXPONENTS  0.4700237D+04 0.7048285D+03 0.1604311D+03 0.4542535D+02 0.1479833D+02
EXPONENTS  0.5351245D+01 0.2154204D+01 0.9336374D+00 0.1879143D+00 0.7464827D-01
EXPONENTS  0.3265048D-01 0.7169569D+00 0.1954193D+00 0.7169569D+00 0.1954193D+00
EXPONENTS  0.7169569D+00 0.1954193D+00 0.3631692D+01 0.3631692D+01 0.3631692D+01
EXPONENTS  0.6051547D-01 0.6051547D-01 0.6051547D-01 0.1800000D+00 0.1800000D+00
EXPONENTS  0.1800000D+00 0.1800000D+00 0.1800000D+00 0.1800000D+00 0.3406134D+02
EXPONENTS  0.5123575D+01 0.1164663D+01 0.3272304D+00 0.1030724D+00 0.8000000D+00
EXPONENTS  0.8000000D+00 0.8000000D+00 0.3406134D+02 0.5123575D+01 0.1164663D+01
EXPONENTS  0.3272304D+00 0.1030724D+00 0.8000000D+00 0.8000000D+00 0.8000000D+00
MO    1     MO 0.0        OCC NO =    2.0000000  ORB. ENERGY =   -4.687325
  0.15255357D+00  0.28437120D+00  0.48266501D+00  0.73589023D+00  0.93690789D+00
  0.86974999D+00  0.47775225D+00  0.11914287D+00  0.22414621D-02 -0.80617575D-03
  0.12119407D-03 -0.00000000D+00 -0.00000000D+00 -0.00000000D+00 -0.00000000D+00
  0.67875233D-03  0.40712631D-03  0.00000000D+00  0.00000000D+00  0.18608791D-01
  0.00000000D+00  0.00000000D+00 -0.18748793D-04  0.23839515D-04 -0.13412717D-04
 -0.10426798D-04  0.00000000D+00  0.00000000D+00  0.00000000D+00  0.20886396D-03
  0.37695693D-03  0.55651441D-03  0.48716877D-03  0.11789106D-03  0.00000000D+00
 -0.89665822D-03  0.45615441D-03  0.20886396D-03  0.37695693D-03  0.55651441D-03
  0.48716877D-03  0.11789106D-03  0.00000000D+00  0.89665822D-03  0.45615441D-03
MO    2     MO 0.0        OCC NO =    2.0000000  ORB. ENERGY =   -0.492145
 -0.25222362D-01 -0.47016358D-01 -0.79801156D-01 -0.12166801D+00 -0.15490316D+00
 -0.14379964D+00 -0.14405187D+00 -0.35923961D-01  0.64654707D-01  0.20216301D-01
  0.91754740D-03 -0.00000000D+00 -0.00000000D+00 -0.00000000D+00 -0.00000000D+00
 -0.25690952D-01 -0.15409836D-01  0.00000000D+00  0.00000000D+00 -0.60527736D-01
  0.00000000D+00  0.00000000D+00 -0.19279842D-03 -0.20687220D-02  0.36479489D-02
 -0.15792269D-02  0.00000000D+00  0.00000000D+00  0.00000000D+00  0.30513160D-01
  0.55070042D-01  0.81301786D-01  0.62265065D-01  0.14042739D-01  0.00000000D+00
 -0.16392774D-01  0.91690763D-02  0.30513160D-01  0.55070042D-01  0.81301786D-01
  0.62265065D-01  0.14042739D-01  0.00000000D+00  0.16392774D-01  0.91690763D-02
MO    3     MO 0.0        OCC NO =    2.0000000  ORB. ENERGY =   -0.410322
  0.00000000D+00  0.00000000D+00  0.00000000D+00  0.00000000D+00  0.00000000D+00
  0.00000000D+00  0.00000000D+00  0.00000000D+00  0.00000000D+00  0.00000000D+00
  0.00000000D+00 -0.00000000D+00 -0.00000000D+00 -0.10183842D+00 -0.61084285D-01
 -0.00000000D+00 -0.00000000D+00  0.00000000D+00 -0.16396044D+00  0.00000000D+00
  0.00000000D+00 -0.47619466D-02  0.00000000D+00  0.00000000D+00  0.00000000D+00
  0.00000000D+00  0.00000000D+00  0.00000000D+00  0.68482917D-02 -0.34739959D-01
 -0.62698554D-01 -0.92564020D-01 -0.65084235D-01 -0.18778164D-01  0.00000000D+00
  0.11379801D-01 -0.11005274D-01  0.34739959D-01  0.62698554D-01  0.92564020D-01
  0.65084235D-01  0.18778164D-01  0.00000000D+00  0.11379801D-01  0.11005274D-01
END DATA
 TOTAL ENERGY =      -15.737093595543 THE VIRIAL(-V/T)=   1.99917692
