 Be+H2 - geom Exp H2 - base Def2TZVP (allE)
GAUSSIAN              3 MOL ORBITALS     45 PRIMITIVES        3 NUCLEI
  Be   1    (CENTRE  1)  -0.00000000  0.00000000  1.88972613  CHARGE =  4.0
  H    2    (CENTRE  2)   0.00000000  0.70014353 -3.77945227  CHARGE =  1.0
  H    3    (CENTRE  3)  -0.00000000 -0.70014353 -3.77945227  CHARGE =  1.0
CENTRE ASSIGNMENTS    1  1  1  1  1  1  1  1  1  1  1  1  1  1  1  1  1  1  1  1
CENTRE ASSIGNMENTS    1  1  1  1  1  1  1  1  1  2  2  2  2  2  2  2  2  3  3  3
CENTRE ASSIGNMENTS    3  3  3  3  3
TYPE ASSIGNMENTS      1  1  1  1  1  1  1  1  1  1  1  2  2  3  3  4  4  2  3  4
TYPE ASSIGNMENTS      2  3  4  5  6  7  8  9 10  1  1  1  1  1  2  3  4  1  1  1
TYPE ASSIGNMENTS      1  1  2  3  4
EXPONENTS  0.4700237D+04 0.7048285D+03 0.1604311D+03 0.4542535D+02 0.1479833D+02
EXPONENTS  0.5351245D+01 0.2154204D+01 0.9336374D+00 0.1879143D+00 0.7464827D-01
EXPONENTS  0.3265048D-01 0.7169569D+00 0.1954193D+00 0.7169569D+00 0.1954193D+00
EXPONENTS  0.7169569D+00 0.1954193D+00 0.3631692D+01 0.3631692D+01 0.3631692D+01
EXPONENTS  0.6051547D-01 0.6051547D-01 0.6051547D-01 0.1800000D+00 0.1800000D+00
EXPONENTS  0.1800000D+00 0.1800000D+00 0.1800000D+00 0.1800000D+00 0.3406134D+02
EXPONENTS  0.5123575D+01 0.1164663D+01 0.3272304D+00 0.1030724D+00 0.8000000D+00
EXPONENTS  0.8000000D+00 0.8000000D+00 0.3406134D+02 0.5123575D+01 0.1164663D+01
EXPONENTS  0.3272304D+00 0.1030724D+00 0.8000000D+00 0.8000000D+00 0.8000000D+00
MO    1     MO 0.0        OCC NO =    2.0000000  ORB. ENERGY =   -4.726483
  0.15279351D+00  0.28481847D+00  0.48342415D+00  0.73704764D+00  0.93838147D+00
  0.87111794D+00  0.47806966D+00  0.11922202D+00  0.16021929D-02 -0.38507135D-03
  0.66421992D-04 -0.00000000D+00 -0.00000000D+00 -0.00000000D+00 -0.00000000D+00
 -0.34410436D-04 -0.20639920D-04  0.00000000D+00  0.00000000D+00 -0.97805358D-03
  0.00000000D+00  0.00000000D+00  0.27435995D-05 -0.12026989D-06 -0.84983169D-07
  0.20525306D-06  0.00000000D+00  0.00000000D+00  0.00000000D+00 -0.27876785D-05
 -0.50311923D-05 -0.74277212D-05  0.22069559D-04 -0.41739971D-05  0.00000000D+00
  0.46884151D-05  0.27769034D-04 -0.27876785D-05 -0.50311923D-05 -0.74277212D-05
  0.22069559D-04 -0.41739971D-05  0.00000000D+00 -0.46884151D-05  0.27769034D-04
MO    2     MO 0.0        OCC NO =    2.0000000  ORB. ENERGY =   -0.603070
 -0.15369562D-02 -0.28650008D-02 -0.48627835D-02 -0.74139928D-02 -0.94392182D-02
 -0.87626115D-02 -0.88437559D-02 -0.22054746D-02  0.36606506D-02  0.26752304D-02
 -0.29319292D-03 -0.00000000D+00 -0.00000000D+00 -0.00000000D+00 -0.00000000D+00
 -0.27935710D-02 -0.16756278D-02  0.00000000D+00  0.00000000D+00 -0.36820614D-02
  0.00000000D+00  0.00000000D+00 -0.10480786D-03 -0.22828179D-03 -0.24936999D-03
  0.47765178D-03  0.00000000D+00  0.00000000D+00  0.00000000D+00  0.46939937D-01
  0.84717031D-01  0.12507065D+00  0.88958106D-01  0.17048221D-01  0.00000000D+00
 -0.23700966D-01  0.98468071D-03  0.46939937D-01  0.84717031D-01  0.12507065D+00
  0.88958106D-01  0.17048221D-01  0.00000000D+00  0.23700966D-01  0.98468071D-03
MO    3     MO 0.0        OCC NO =    2.0000000  ORB. ENERGY =   -0.304059
 -0.30262224D-01 -0.56411036D-01 -0.95746801D-01 -0.14597937D+00 -0.18585547D+00
 -0.17253328D+00 -0.18184706D+00 -0.45349405D-01  0.90691553D-01  0.55547441D-01
  0.71992612D-02 -0.00000000D+00 -0.00000000D+00 -0.00000000D+00 -0.00000000D+00
  0.94865967D-03  0.56902098D-03  0.00000000D+00  0.00000000D+00  0.18901659D-02
  0.00000000D+00  0.00000000D+00 -0.36467016D-05 -0.37689772D-04  0.20912776D-04
  0.16776996D-04  0.00000000D+00  0.00000000D+00  0.00000000D+00 -0.53257706D-02
 -0.96119318D-02 -0.14190424D-01 -0.99766169D-02 -0.50475872D-02  0.00000000D+00
  0.28905135D-02  0.28682925D-02 -0.53257706D-02 -0.96119318D-02 -0.14190424D-01
 -0.99766169D-02 -0.50475872D-02  0.00000000D+00 -0.28905135D-02  0.28682925D-02
END DATA
 TOTAL ENERGY =      -15.701295088434 THE VIRIAL(-V/T)=   1.99906637
