 BH - geom Experimentale - base Def2TZVP (allE)
GAUSSIAN              6 MOL ORBITALS     59 PRIMITIVES        2 NUCLEI
  H    1    (CENTRE  1)   0.00000000  0.00000000 -1.94011883  CHARGE =  1.0
  B    2    (CENTRE  2)   0.00000000  0.00000000  0.38802377  CHARGE =  5.0
CENTRE ASSIGNMENTS    1  1  1  1  1  1  1  1  2  2  2  2  2  2  2  2  2  2  2  2
CENTRE ASSIGNMENTS    2  2  2  2  2  2  2  2  2  2  2  2  2  2  2  2  2  2  2  2
CENTRE ASSIGNMENTS    2  2  2  2  2  2  2  2  2  2  2  2  2  2  2  2  2  2  2
TYPE ASSIGNMENTS      1  1  1  1  1  2  3  4  1  1  1  1  1  1  1  1  1  1  1  2
TYPE ASSIGNMENTS      2  2  2  3  3  3  3  4  4  4  4  2  3  4  2  3  4  5  6  7
TYPE ASSIGNMENTS      8  9 10  5  6  7  8  9 10 11 12 13 17 14 15 18 19 16 20
EXPONENTS  0.3406134D+02 0.5123575D+01 0.1164663D+01 0.3272304D+00 0.1030724D+00
EXPONENTS  0.8000000D+00 0.8000000D+00 0.8000000D+00 0.8564866D+04 0.1284152D+04
EXPONENTS  0.2922787D+03 0.8277547D+02 0.2701794D+02 0.9814962D+01 0.3931856D+01
EXPONENTS  0.1659560D+01 0.3576297D+00 0.1424628D+00 0.6056059D-01 0.2245388D+02
EXPONENTS  0.5104506D+01 0.1498608D+01 0.5092783D+00 0.2245388D+02 0.5104506D+01
EXPONENTS  0.1498608D+01 0.5092783D+00 0.2245388D+02 0.5104506D+01 0.1498608D+01
EXPONENTS  0.5092783D+00 0.1814708D+00 0.1814708D+00 0.1814708D+00 0.6462189D-01
EXPONENTS  0.6462189D-01 0.6462189D-01 0.6610000D+00 0.6610000D+00 0.6610000D+00
EXPONENTS  0.6610000D+00 0.6610000D+00 0.6610000D+00 0.1990000D+00 0.1990000D+00
EXPONENTS  0.1990000D+00 0.1990000D+00 0.1990000D+00 0.1990000D+00 0.4900000D+00
EXPONENTS  0.4900000D+00 0.4900000D+00 0.4900000D+00 0.4900000D+00 0.4900000D+00
EXPONENTS  0.4900000D+00 0.4900000D+00 0.4900000D+00 0.4900000D+00
MO    1     MO 0.0        OCC NO =    1.0000000  ORB. ENERGY =   -7.678144
  0.68731533D-04  0.12404643D-03  0.18313398D-03 -0.59500536D-05  0.43693525D-04
  0.00000000D+00  0.00000000D+00  0.69830129D-05  0.20075842D+00  0.37454007D+00
  0.63799643D+00  0.98476638D+00  0.12945553D+01  0.12794294D+01  0.78201183D+00
  0.21861965D+00  0.56308287D-02 -0.10910950D-02  0.18968935D-03  0.00000000D+00
  0.00000000D+00  0.00000000D+00  0.00000000D+00  0.00000000D+00  0.00000000D+00
  0.00000000D+00  0.00000000D+00  0.66459736D-03  0.68078943D-03  0.58986186D-03
  0.38633924D-03  0.00000000D+00  0.00000000D+00 -0.77929164D-04  0.00000000D+00
  0.00000000D+00  0.14767675D-04  0.63708548D-03 -0.93589434D-03  0.29880886D-03
  0.00000000D+00  0.00000000D+00  0.00000000D+00  0.92927924D-05 -0.21182186D-04
  0.11889393D-04  0.00000000D+00  0.00000000D+00  0.00000000D+00  0.00000000D+00
  0.00000000D+00 -0.85717378D-04  0.00000000D+00  0.00000000D+00  0.14602958D-03
  0.00000000D+00  0.00000000D+00  0.11112255D-03  0.00000000D+00
MO    2     MO 0.0        OCC NO =    1.0000000  ORB. ENERGY =   -0.679580
  0.35320192D-01  0.63745757D-01  0.94110042D-01  0.63575457D-01  0.88596274D-02
  0.00000000D+00  0.00000000D+00  0.17279589D-01 -0.38954762D-01 -0.72675005D-01
 -0.12379555D+00 -0.19108210D+00 -0.25119291D+00 -0.24825793D+00 -0.26987295D+00
 -0.75445828D-01  0.12026030D+00  0.67890075D-01  0.50545143D-02  0.00000000D+00
  0.00000000D+00  0.00000000D+00  0.00000000D+00  0.00000000D+00  0.00000000D+00
  0.00000000D+00  0.00000000D+00 -0.45651272D-01 -0.46763508D-01 -0.40517682D-01
 -0.26537689D-01  0.00000000D+00  0.00000000D+00 -0.41042713D-02  0.00000000D+00
  0.00000000D+00 -0.59010937D-04  0.13940811D-02 -0.14669282D-01  0.13275201D-01
  0.00000000D+00  0.00000000D+00  0.00000000D+00  0.13879460D-02 -0.27359587D-02
  0.13480127D-02  0.00000000D+00  0.00000000D+00  0.00000000D+00  0.00000000D+00
  0.00000000D+00 -0.17845849D-02  0.00000000D+00  0.00000000D+00  0.28327019D-02
  0.00000000D+00  0.00000000D+00  0.25210529D-02  0.00000000D+00
MO    3     MO 0.0        OCC NO =    1.0000000  ORB. ENERGY =   -0.450055
 -0.33620068D-01 -0.60677379D-01 -0.89580089D-01 -0.66615228D-01 -0.19213688D-01
  0.00000000D+00  0.00000000D+00 -0.11946789D-01 -0.18677397D-01 -0.34845033D-01
 -0.59355482D-01 -0.91616945D-01 -0.12043790D+00 -0.11903068D+00 -0.13301013D+00
 -0.37184383D-01  0.64841127D-01  0.54027789D-01  0.10442877D-01  0.00000000D+00
  0.00000000D+00  0.00000000D+00  0.00000000D+00  0.00000000D+00  0.00000000D+00
  0.00000000D+00  0.00000000D+00  0.27478477D+00  0.28147955D+00  0.24388459D+00
  0.15973602D+00  0.00000000D+00  0.00000000D+00  0.56227153D-01  0.00000000D+00
  0.00000000D+00  0.36647982D-02  0.81912783D-02 -0.93442797D-03 -0.72568503D-02
  0.00000000D+00  0.00000000D+00  0.00000000D+00  0.19560215D-02 -0.88632139D-03
 -0.10697002D-02  0.00000000D+00  0.00000000D+00  0.00000000D+00  0.00000000D+00
  0.00000000D+00  0.65077820D-03  0.00000000D+00  0.00000000D+00 -0.20122808D-03
  0.00000000D+00  0.00000000D+00 -0.17511065D-02  0.00000000D+00
MO    4     MO 0.0        OCC NO =    1.0000000  ORB. ENERGY =   -0.324555
  0.00000000D+00  0.00000000D+00  0.00000000D+00  0.00000000D+00  0.00000000D+00
  0.16938201D-01  0.00000000D+00  0.00000000D+00  0.00000000D+00  0.00000000D+00
  0.00000000D+00  0.00000000D+00  0.00000000D+00  0.00000000D+00  0.00000000D+00
  0.00000000D+00  0.00000000D+00  0.00000000D+00  0.00000000D+00  0.34321742D+00
  0.35157948D+00  0.30462183D+00  0.19951683D+00  0.00000000D+00  0.00000000D+00
  0.00000000D+00  0.00000000D+00  0.00000000D+00  0.00000000D+00  0.00000000D+00
  0.00000000D+00  0.82724616D-01  0.00000000D+00  0.00000000D+00  0.11190647D-01
  0.00000000D+00  0.00000000D+00  0.00000000D+00  0.00000000D+00  0.00000000D+00
  0.00000000D+00  0.15562357D-01  0.00000000D+00  0.00000000D+00  0.00000000D+00
  0.00000000D+00  0.00000000D+00  0.26561774D-02  0.00000000D+00 -0.19165067D-03
  0.00000000D+00  0.00000000D+00 -0.11582213D-02  0.00000000D+00  0.00000000D+00
  0.17331733D-02  0.00000000D+00  0.00000000D+00  0.00000000D+00
MO   38     MO 0.0        OCC NO =    1.0000000  ORB. ENERGY =   -7.638267
  0.31976742D-04  0.57711510D-04  0.85201476D-04  0.27271391D-03 -0.34354280D-05
  0.00000000D+00  0.00000000D+00  0.59249736D-03  0.20078934D+00  0.37459775D+00
  0.63809468D+00  0.98491804D+00  0.12947546D+01  0.12796265D+01  0.78434683D+00
  0.21927242D+00  0.41086060D-02 -0.98548149D-03  0.15859184D-03  0.00000000D+00
  0.00000000D+00  0.00000000D+00  0.00000000D+00  0.00000000D+00  0.00000000D+00
  0.00000000D+00  0.00000000D+00  0.49160125D-03  0.50357849D-03  0.43631956D-03
  0.28577431D-03  0.00000000D+00  0.00000000D+00 -0.91830904D-04  0.00000000D+00
  0.00000000D+00  0.13852987D-04 -0.45572318D-03  0.44095551D-03  0.14767666D-04
  0.00000000D+00  0.00000000D+00  0.00000000D+00  0.22736597D-04 -0.15436459D-04
 -0.73001372D-05  0.00000000D+00  0.00000000D+00  0.00000000D+00  0.00000000D+00
  0.00000000D+00  0.18359929D-05  0.00000000D+00  0.00000000D+00  0.65032859D-07
  0.00000000D+00  0.00000000D+00 -0.55730117D-05  0.00000000D+00
MO   39     MO 0.0        OCC NO =    1.0000000  ORB. ENERGY =   -0.570564
  0.43236297D-01  0.78032716D-01  0.11520237D+00  0.76711907D-01  0.14840480D-01
  0.00000000D+00  0.00000000D+00  0.20811181D-01 -0.29362115D-01 -0.54778717D-01
 -0.93310779D-01 -0.14402795D+00 -0.18933642D+00 -0.18712418D+00 -0.20159493D+00
 -0.56357988D-01  0.84021345D-01  0.46022602D-01  0.42915051D-02  0.00000000D+00
  0.00000000D+00  0.00000000D+00  0.00000000D+00  0.00000000D+00  0.00000000D+00
  0.00000000D+00  0.00000000D+00 -0.14203968D+00 -0.14550030D+00 -0.12606699D+00
 -0.82569546D-01  0.00000000D+00  0.00000000D+00 -0.24647663D-01  0.00000000D+00
  0.00000000D+00 -0.78730482D-03 -0.15283958D-01 -0.40719080D-02  0.19355866D-01
  0.00000000D+00  0.00000000D+00  0.00000000D+00 -0.25627332D-02 -0.17303653D-03
  0.27357697D-02  0.00000000D+00  0.00000000D+00  0.00000000D+00  0.00000000D+00
  0.00000000D+00 -0.17949713D-02  0.00000000D+00  0.00000000D+00  0.54377542D-02
  0.00000000D+00  0.00000000D+00 -0.52840347D-04  0.00000000D+00
END DATA
 TOTAL ENERGY =      -25.115825194017 THE VIRIAL(-V/T)=   2.00212222
