 C2H2pse                                                 
GAUSSIAN              5 MOL ORBITALS     80 PRIMITIVES        4 NUCLEI
  C    1    (CENTRE  1)   0.00000000  0.00000000 -1.11437256  CHARGE =  4.0
  C    2    (CENTRE  2)   0.00000001 -0.00000001  1.11437271  CHARGE =  4.0
  H    3    (CENTRE  3)   0.00000000  0.00000000 -3.10472035  CHARGE =  1.0
  H    4    (CENTRE  4)  -0.00000001  0.00000001  3.10472021  CHARGE =  1.0
CENTRE ASSIGNMENTS    1  1  1  1  1  1  1  1  1  1  1  1  1  1  1  1  1  1  1  1
CENTRE ASSIGNMENTS    1  1  1  1  1  1  1  1  1  1  1  1  2  2  2  2  2  2  2  2
CENTRE ASSIGNMENTS    2  2  2  2  2  2  2  2  2  2  2  2  2  2  2  2  2  2  2  2
CENTRE ASSIGNMENTS    2  2  2  2  3  3  3  3  3  3  3  3  4  4  4  4  4  4  4  4
TYPE ASSIGNMENTS      1  1  1  1  1  1  1  1  1  2  2  2  3  3  3  4  4  4  1  2
TYPE ASSIGNMENTS      3  4  1  2  3  4  5  6  7  8  9 10  1  1  1  1  1  1  1  1
TYPE ASSIGNMENTS      1  2  2  2  3  3  3  4  4  4  1  2  3  4  1  2  3  4  5  6
TYPE ASSIGNMENTS      7  8  9 10  1  1  1  1  1  2  3  4  1  1  1  1  1  2  3  4
EXPONENTS  0.4563240E+04 0.6820240E+03 0.1549730E+03 0.4445530E+02 0.1302900E+02
EXPONENTS  0.1827730E+01 0.2096420E+02 0.4803310E+01 0.1459330E+01 0.2096420E+02
EXPONENTS  0.4803310E+01 0.1459330E+01 0.2096420E+02 0.4803310E+01 0.1459330E+01
EXPONENTS  0.2096420E+02 0.4803310E+01 0.1459330E+01 0.4834560E+00 0.4834560E+00
EXPONENTS  0.4834560E+00 0.4834560E+00 0.1455850E+00 0.1455850E+00 0.1455850E+00
EXPONENTS  0.1455850E+00 0.6260000E+00 0.6260000E+00 0.6260000E+00 0.6260000E+00
EXPONENTS  0.6260000E+00 0.6260000E+00 0.4563240E+04 0.6820240E+03 0.1549730E+03
EXPONENTS  0.4445530E+02 0.1302900E+02 0.1827730E+01 0.2096420E+02 0.4803310E+01
EXPONENTS  0.1459330E+01 0.2096420E+02 0.4803310E+01 0.1459330E+01 0.2096420E+02
EXPONENTS  0.4803310E+01 0.1459330E+01 0.2096420E+02 0.4803310E+01 0.1459330E+01
EXPONENTS  0.4834560E+00 0.4834560E+00 0.4834560E+00 0.4834560E+00 0.1455850E+00
EXPONENTS  0.1455850E+00 0.1455850E+00 0.1455850E+00 0.6260000E+00 0.6260000E+00
EXPONENTS  0.6260000E+00 0.6260000E+00 0.6260000E+00 0.6260000E+00 0.3386500E+02
EXPONENTS  0.5094790E+01 0.1158790E+01 0.3258400E+00 0.1027410E+00 0.7500000E+00
EXPONENTS  0.7500000E+00 0.7500000E+00 0.3386500E+02 0.5094790E+01 0.1158790E+01
EXPONENTS  0.3258400E+00 0.1027410E+00 0.7500000E+00 0.7500000E+00 0.7500000E+00
MO    1     MO 0.0        OCC NO =    2.0000000  ORB. ENERGY =   -1.038642
  0.19784851E-01  0.36831338E-01  0.60587204E-01  0.81358446E-01  0.76602044E-01
  0.62948999E-02 -0.75028393E-01 -0.19936449E+00  0.26875726E-03  0.10647655E-08
  0.99635815E-09  0.77171790E-09 -0.10647546E-08 -0.99634796E-09 -0.77171001E-09
  0.20385861E+00  0.19076144E+00  0.14775211E+00  0.13205034E+00  0.29602049E-09
 -0.29601766E-09  0.63077032E-01  0.33183258E-01  0.44877045E-11 -0.44876489E-11
  0.37679309E-02 -0.88908902E-02 -0.88908902E-02  0.17781780E-01 -0.50264462E-17
  0.31898314E-09 -0.31898016E-09  0.19784852E-01  0.36831339E-01  0.60587206E-01
  0.81358449E-01  0.76602047E-01  0.62949001E-02 -0.75028395E-01 -0.19936449E+00
  0.26875727E-03 -0.14390708E-08 -0.13466157E-08 -0.10430059E-08  0.14390592E-08
  0.13466048E-08  0.10429975E-08 -0.20385859E+00 -0.19076141E+00 -0.14775209E+00
  0.13205034E+00 -0.33429552E-09  0.33429250E-09 -0.63077039E-01  0.33183270E-01
 -0.12723526E-10  0.12723444E-10 -0.37679367E-02 -0.88908892E-02 -0.88908892E-02
  0.17781778E-01 -0.27277362E-17  0.36637656E-09 -0.36637347E-09  0.97287132E-02
  0.17549211E-01  0.25872162E-01  0.24232747E-01 -0.20574076E-02  0.48088182E-10
 -0.48088163E-10  0.18990955E-01  0.97287174E-02  0.17549218E-01  0.25872173E-01
  0.24232761E-01 -0.20574073E-02  0.37679242E-10 -0.37679138E-10 -0.18990969E-01
MO    2     MO 0.0        OCC NO =    2.0000000  ORB. ENERGY =   -0.767275
  0.12165038E-01  0.22646348E-01  0.37253030E-01  0.50024567E-01  0.47100016E-01
  0.38705218E-02 -0.46166533E-01 -0.12267312E+00  0.16537194E-03  0.31900530E-09
  0.29851036E-09  0.23120781E-09 -0.31899743E-09 -0.29850300E-09 -0.23120211E-09
 -0.22683529E+00 -0.21226194E+00 -0.16440508E+00  0.78240932E-01 -0.47638075E-11
  0.47646864E-11 -0.92324000E-01  0.61145209E-01  0.87901750E-10 -0.87901011E-10
  0.83851363E-02  0.11000353E-02  0.11000353E-02 -0.22000706E-02 -0.25414450E-17
 -0.14362578E-10  0.14361357E-10 -0.12165038E-01 -0.22646347E-01 -0.37253028E-01
 -0.50024564E-01 -0.47100013E-01 -0.38705216E-02  0.46166530E-01  0.12267311E+00
 -0.16537193E-03  0.13262716E-08  0.12410635E-08  0.96125164E-09 -0.13262631E-08
 -0.12410555E-08 -0.96124546E-09 -0.22683559E+00 -0.21226222E+00 -0.16440530E+00
 -0.78240922E-01  0.25663252E-09 -0.25663084E-09 -0.92324076E-01 -0.61145205E-01
  0.66280963E-10 -0.66280286E-10  0.83851322E-02 -0.11000375E-02 -0.11000375E-02
  0.22000750E-02 -0.29406932E-18  0.23248162E-09 -0.23248049E-09  0.33240762E-01
  0.59961591E-01  0.88399191E-01  0.68884858E-01  0.66245942E-02 -0.45047691E-10
  0.45045792E-10  0.32705712E-01 -0.33240786E-01 -0.59961635E-01 -0.88399254E-01
 -0.68884900E-01 -0.66245976E-02 -0.38902469E-09  0.38902233E-09  0.32705736E-01
MO    3     MO 0.0        OCC NO =    2.0000000  ORB. ENERGY =   -0.684002
 -0.48880552E-03 -0.90995685E-03 -0.14968705E-02 -0.20100458E-02 -0.18925339E-02
 -0.15552211E-03  0.18389407E-02  0.48864097E-02 -0.65872216E-05  0.18111589E-08
  0.16947985E-08  0.13126870E-08 -0.18111502E-08 -0.16947904E-08 -0.13126806E-08
  0.46078592E+00  0.43118209E+00  0.33396720E+00 -0.43290798E-02  0.57893056E-09
 -0.57892774E-09  0.13303387E+00 -0.10475253E-01  0.49377505E-10 -0.49377288E-10
  0.12737896E-01 -0.98199523E-03 -0.98199523E-03  0.19639905E-02 -0.21776360E-17
  0.37317935E-09 -0.37317560E-09 -0.48879892E-03 -0.90994456E-03 -0.14968502E-02
 -0.20100186E-02 -0.18925083E-02 -0.15552001E-03  0.18389155E-02  0.48863429E-02
 -0.65871316E-05  0.16026620E-09  0.14996968E-09  0.11615731E-09 -0.16027186E-09
 -0.14997497E-09 -0.11616141E-09 -0.46078581E+00 -0.43118199E+00 -0.33396712E+00
 -0.43290355E-02  0.26244456E-10 -0.26246290E-10 -0.13303380E+00 -0.10475222E-01
  0.10382587E-10 -0.10382705E-10 -0.12737895E-01 -0.98199384E-03 -0.98199384E-03
  0.19639877E-02 -0.61417711E-17  0.39757671E-09 -0.39757309E-09 -0.34163860E-01
 -0.61626729E-01 -0.90854042E-01 -0.66585995E-01 -0.52282834E-02  0.82122460E-10
 -0.82120394E-10 -0.29964108E-01 -0.34163844E-01 -0.61626701E-01 -0.90854001E-01
 -0.66585958E-01 -0.52282789E-02 -0.36309385E-09  0.36309152E-09  0.29964093E-01
MO    4     MO 0.0        OCC NO =    2.0000000  ORB. ENERGY =   -0.414231
  0.11075420E-09  0.20617922E-09  0.33916288E-09  0.45543883E-09  0.42881283E-09
  0.35238405E-10 -0.42231808E-09 -0.11221782E-08  0.15127746E-11 -0.30861753E+00
 -0.28878997E+00 -0.22367899E+00  0.32874075E+00  0.30762034E+00  0.23826385E+00
  0.36748390E-08  0.34387439E-08  0.26634401E-08  0.81918667E-09 -0.11206491E+00
  0.11937203E+00  0.72466179E-09 -0.13862323E-09 -0.21268268E-01  0.22655052E-01
 -0.11525846E-09 -0.90630463E-10 -0.10364504E-09  0.19427550E-09  0.41226610E-09
 -0.28153044E-01  0.29988746E-01 -0.14522022E-09 -0.27034092E-09 -0.44470828E-09
 -0.59716858E-09 -0.56225673E-09 -0.46204379E-10  0.55424902E-09  0.14727434E-08
 -0.19853610E-11 -0.30861753E+00 -0.28878997E+00 -0.22367899E+00  0.32874074E+00
  0.30762034E+00  0.23826384E+00 -0.80041722E-11 -0.74899331E-11 -0.58012427E-11
 -0.10451126E-08 -0.11206491E+00  0.11937203E+00 -0.48499140E-09 -0.22344133E-09
 -0.21268268E-01  0.22655052E-01 -0.29786205E-09  0.85131993E-10  0.98321364E-10
 -0.18345336E-09 -0.41780736E-09  0.28153044E-01 -0.29988747E-01 -0.77257102E-10
 -0.13936079E-09 -0.20545454E-09 -0.28083715E-09 -0.87395584E-10 -0.11058081E-01
  0.11779116E-01 -0.14716795E-09  0.77398673E-10  0.13961616E-09  0.20583102E-09
  0.19918481E-09  0.47392236E-10 -0.11058083E-01  0.11779119E-01 -0.37773249E-09
MO    5     MO 0.0        OCC NO =    2.0000000  ORB. ENERGY =   -0.414231
 -0.34974110E-11 -0.65107552E-11 -0.10710131E-10 -0.14381909E-10 -0.13541109E-10
 -0.11127631E-11  0.13336019E-10  0.35436301E-10 -0.47770609E-13  0.32874075E+00
  0.30762034E+00  0.23826385E+00  0.30861753E+00  0.28878997E+00  0.22367899E+00
 -0.11603487E-09 -0.10858005E-09 -0.84099446E-10 -0.25868372E-10  0.11937203E+00
  0.11206491E+00 -0.22880597E-10  0.43766137E-11  0.22655052E-01  0.21268268E-01
  0.36401186E-11  0.20920043E-09 -0.20306574E-09 -0.61346851E-11 -0.13014483E-10
  0.29988746E-01  0.28153044E-01  0.45856406E-11  0.85365956E-11  0.14042619E-10
  0.18856881E-10  0.17754464E-10  0.14590025E-11 -0.17501596E-10 -0.46505017E-10
  0.62692011E-13  0.32874074E+00  0.30762034E+00  0.23826384E+00  0.30861753E+00
  0.28878997E+00  0.22367899E+00  0.24630526E-12  0.23048103E-12  0.17851647E-12
  0.33001642E-10  0.11937203E+00  0.11206491E+00  0.15312766E-10  0.70549199E-11
  0.22655052E-01  0.21268268E-01  0.94053916E-11 -0.21180024E-09  0.20600720E-09
  0.57930392E-11  0.13189461E-10 -0.29988747E-01 -0.28153044E-01  0.24395940E-11
  0.44006796E-11  0.64877616E-11  0.88680564E-11  0.27597744E-11  0.11779116E-01
  0.11058081E-01  0.46476012E-11 -0.24440732E-11 -0.44087594E-11 -0.64996734E-11
 -0.62899956E-11 -0.14965419E-11  0.11779119E-01  0.11058083E-01  0.11927370E-10
END DATA
 THE  HF ENERGY =    -12.098744165309 THE VIRIAL(-V/T)=   2.30117826
