 C2H4 - geom Experimentale - base Def2TZVP (allE)
GAUSSIAN              8 MOL ORBITALS    134 PRIMITIVES        6 NUCLEI
  C    1    (CENTRE  1)   0.00000000  0.00000000  1.26517165  CHARGE =  6.0
  C    2    (CENTRE  2)   0.00000000  0.00000000 -1.26517165  CHARGE =  6.0
  H    3    (CENTRE  3)   0.00000000  1.75536660  2.32833157  CHARGE =  1.0
  H    4    (CENTRE  4)  -0.00000000 -1.75536660  2.32833157  CHARGE =  1.0
  H    5    (CENTRE  5)   0.00000000  1.75536660 -2.32833157  CHARGE =  1.0
  H    6    (CENTRE  6)  -0.00000000 -1.75536660 -2.32833157  CHARGE =  1.0
CENTRE ASSIGNMENTS    1  1  1  1  1  1  1  1  1  1  1  1  1  1  1  1  1  1  1  1
CENTRE ASSIGNMENTS    1  1  1  1  1  1  1  1  1  1  1  1  1  1  1  1  1  1  1  1
CENTRE ASSIGNMENTS    1  1  1  1  1  1  1  1  1  1  1  2  2  2  2  2  2  2  2  2
CENTRE ASSIGNMENTS    2  2  2  2  2  2  2  2  2  2  2  2  2  2  2  2  2  2  2  2
CENTRE ASSIGNMENTS    2  2  2  2  2  2  2  2  2  2  2  2  2  2  2  2  2  2  2  2
CENTRE ASSIGNMENTS    2  2  3  3  3  3  3  3  3  3  4  4  4  4  4  4  4  4  5  5
CENTRE ASSIGNMENTS    5  5  5  5  5  5  6  6  6  6  6  6  6  6
TYPE ASSIGNMENTS      1  1  1  1  1  1  1  1  1  1  1  2  2  2  2  3  3  3  3  4
TYPE ASSIGNMENTS      4  4  4  2  3  4  2  3  4  5  6  7  8  9 10  5  6  7  8  9
TYPE ASSIGNMENTS     10 11 12 13 17 14 15 18 19 16 20  1  1  1  1  1  1  1  1  1
TYPE ASSIGNMENTS      1  1  2  2  2  2  3  3  3  3  4  4  4  4  2  3  4  2  3  4
TYPE ASSIGNMENTS      5  6  7  8  9 10  5  6  7  8  9 10 11 12 13 17 14 15 18 19
TYPE ASSIGNMENTS     16 20  1  1  1  1  1  2  3  4  1  1  1  1  1  2  3  4  1  1
TYPE ASSIGNMENTS      1  1  1  2  3  4  1  1  1  1  1  2  3  4
EXPONENTS  0.1357535D+05 0.2035233D+04 0.4632256D+03 0.1312002D+03 0.4285302D+02
EXPONENTS  0.1558419D+02 0.6206714D+01 0.2576490D+01 0.5769634D+00 0.2297283D+00
EXPONENTS  0.9516444D-01 0.3469723D+02 0.7958262D+01 0.2378083D+01 0.8143321D+00
EXPONENTS  0.3469723D+02 0.7958262D+01 0.2378083D+01 0.8143321D+00 0.3469723D+02
EXPONENTS  0.7958262D+01 0.2378083D+01 0.8143321D+00 0.2888755D+00 0.2888755D+00
EXPONENTS  0.2888755D+00 0.1005682D+00 0.1005682D+00 0.1005682D+00 0.1097000D+01
EXPONENTS  0.1097000D+01 0.1097000D+01 0.1097000D+01 0.1097000D+01 0.1097000D+01
EXPONENTS  0.3180000D+00 0.3180000D+00 0.3180000D+00 0.3180000D+00 0.3180000D+00
EXPONENTS  0.3180000D+00 0.7610000D+00 0.7610000D+00 0.7610000D+00 0.7610000D+00
EXPONENTS  0.7610000D+00 0.7610000D+00 0.7610000D+00 0.7610000D+00 0.7610000D+00
EXPONENTS  0.7610000D+00 0.1357535D+05 0.2035233D+04 0.4632256D+03 0.1312002D+03
EXPONENTS  0.4285302D+02 0.1558419D+02 0.6206714D+01 0.2576490D+01 0.5769634D+00
EXPONENTS  0.2297283D+00 0.9516444D-01 0.3469723D+02 0.7958262D+01 0.2378083D+01
EXPONENTS  0.8143321D+00 0.3469723D+02 0.7958262D+01 0.2378083D+01 0.8143321D+00
EXPONENTS  0.3469723D+02 0.7958262D+01 0.2378083D+01 0.8143321D+00 0.2888755D+00
EXPONENTS  0.2888755D+00 0.2888755D+00 0.1005682D+00 0.1005682D+00 0.1005682D+00
EXPONENTS  0.1097000D+01 0.1097000D+01 0.1097000D+01 0.1097000D+01 0.1097000D+01
EXPONENTS  0.1097000D+01 0.3180000D+00 0.3180000D+00 0.3180000D+00 0.3180000D+00
EXPONENTS  0.3180000D+00 0.3180000D+00 0.7610000D+00 0.7610000D+00 0.7610000D+00
EXPONENTS  0.7610000D+00 0.7610000D+00 0.7610000D+00 0.7610000D+00 0.7610000D+00
EXPONENTS  0.7610000D+00 0.7610000D+00 0.3406134D+02 0.5123575D+01 0.1164663D+01
EXPONENTS  0.3272304D+00 0.1030724D+00 0.8000000D+00 0.8000000D+00 0.8000000D+00
EXPONENTS  0.3406134D+02 0.5123575D+01 0.1164663D+01 0.3272304D+00 0.1030724D+00
EXPONENTS  0.8000000D+00 0.8000000D+00 0.8000000D+00 0.3406134D+02 0.5123575D+01
EXPONENTS  0.1164663D+01 0.3272304D+00 0.1030724D+00 0.8000000D+00 0.8000000D+00
EXPONENTS  0.8000000D+00 0.3406134D+02 0.5123575D+01 0.1164663D+01 0.3272304D+00
EXPONENTS  0.1030724D+00 0.8000000D+00 0.8000000D+00 0.8000000D+00
MO    1     MO 0.0        OCC NO =    2.0000000  ORB. ENERGY =  -11.231935
  0.17965828D+00  0.33531317D+00  0.57228996D+00  0.88939574D+00  0.11912827D+01
  0.12237054D+01  0.79624380D+00  0.23595010D+00  0.61417649D-02 -0.85500519D-03
  0.28688844D-03  0.00000000D+00  0.00000000D+00  0.00000000D+00  0.00000000D+00
  0.00000000D+00  0.00000000D+00  0.00000000D+00  0.00000000D+00  0.29871015D-03
  0.31883275D-03  0.27921407D-03  0.17632021D-03  0.00000000D+00  0.00000000D+00
  0.31348918D-05  0.00000000D+00  0.00000000D+00  0.16531764D-04 -0.68381334D-03
  0.35162878D-03  0.33218457D-03  0.00000000D+00  0.00000000D+00  0.00000000D+00
 -0.70974440D-04  0.60099579D-04  0.10874861D-04  0.00000000D+00  0.00000000D+00
  0.00000000D+00  0.00000000D+00  0.00000000D+00 -0.38977568D-03  0.00000000D+00
  0.00000000D+00 -0.24246337D-04  0.00000000D+00  0.00000000D+00  0.11935734D-02
  0.00000000D+00  0.17965828D+00  0.33531317D+00  0.57228996D+00  0.88939574D+00
  0.11912827D+01  0.12237054D+01  0.79624380D+00  0.23595010D+00  0.61417649D-02
 -0.85500519D-03  0.28688844D-03  0.00000000D+00  0.00000000D+00  0.00000000D+00
  0.00000000D+00  0.00000000D+00  0.00000000D+00  0.00000000D+00  0.00000000D+00
 -0.29871015D-03 -0.31883275D-03 -0.27921407D-03 -0.17632021D-03  0.00000000D+00
  0.00000000D+00 -0.31348918D-05  0.00000000D+00  0.00000000D+00 -0.16531764D-04
 -0.68381334D-03  0.35162878D-03  0.33218457D-03  0.00000000D+00  0.00000000D+00
  0.00000000D+00 -0.70974440D-04  0.60099579D-04  0.10874861D-04  0.00000000D+00
  0.00000000D+00  0.00000000D+00  0.00000000D+00  0.00000000D+00  0.38977568D-03
  0.00000000D+00  0.00000000D+00  0.24246337D-04  0.00000000D+00  0.00000000D+00
 -0.11935734D-02  0.00000000D+00 -0.26883279D-04 -0.48518846D-04 -0.71630032D-04
 -0.89538661D-04 -0.74687256D-04  0.00000000D+00  0.33469491D-03  0.24046879D-03
 -0.26883279D-04 -0.48518846D-04 -0.71630032D-04 -0.89538661D-04 -0.74687256D-04
  0.00000000D+00 -0.33469491D-03  0.24046879D-03 -0.26883279D-04 -0.48518846D-04
 -0.71630032D-04 -0.89538661D-04 -0.74687256D-04  0.00000000D+00  0.33469491D-03
 -0.24046879D-03 -0.26883279D-04 -0.48518846D-04 -0.71630032D-04 -0.89538661D-04
 -0.74687256D-04  0.00000000D+00 -0.33469491D-03 -0.24046879D-03
MO    2     MO 0.0        OCC NO =    2.0000000  ORB. ENERGY =  -11.230275
  0.17974891D+00  0.33548231D+00  0.57257864D+00  0.88984437D+00  0.11918836D+01
  0.12243227D+01  0.79653928D+00  0.23603766D+00  0.61917498D-02 -0.85106187D-05
  0.90193126D-03  0.00000000D+00  0.00000000D+00  0.00000000D+00  0.00000000D+00
  0.00000000D+00  0.00000000D+00  0.00000000D+00  0.00000000D+00  0.43356332D-03
  0.46277031D-03  0.40526571D-03  0.25592024D-03  0.00000000D+00  0.00000000D+00
 -0.13367609D-02  0.00000000D+00  0.00000000D+00 -0.10084926D-03 -0.86171673D-03
  0.22369952D-03  0.63801722D-03  0.00000000D+00  0.00000000D+00  0.00000000D+00
 -0.17314281D-03 -0.21930788D-03  0.39245069D-03  0.00000000D+00  0.00000000D+00
  0.00000000D+00  0.00000000D+00  0.00000000D+00 -0.34386049D-03  0.00000000D+00
  0.00000000D+00  0.62721476D-04  0.00000000D+00  0.00000000D+00  0.96886001D-03
  0.00000000D+00 -0.17974891D+00 -0.33548231D+00 -0.57257864D+00 -0.88984437D+00
 -0.11918836D+01 -0.12243227D+01 -0.79653928D+00 -0.23603766D+00 -0.61917498D-02
  0.85106187D-05 -0.90193126D-03  0.00000000D+00  0.00000000D+00  0.00000000D+00
  0.00000000D+00  0.00000000D+00  0.00000000D+00  0.00000000D+00  0.00000000D+00
  0.43356332D-03  0.46277031D-03  0.40526571D-03  0.25592024D-03  0.00000000D+00
  0.00000000D+00 -0.13367609D-02  0.00000000D+00  0.00000000D+00 -0.10084926D-03
  0.86171673D-03 -0.22369952D-03 -0.63801722D-03  0.00000000D+00  0.00000000D+00
  0.00000000D+00  0.17314281D-03  0.21930788D-03 -0.39245069D-03  0.00000000D+00
  0.00000000D+00  0.00000000D+00  0.00000000D+00  0.00000000D+00 -0.34386049D-03
  0.00000000D+00  0.00000000D+00  0.62721476D-04  0.00000000D+00  0.00000000D+00
  0.96886001D-03  0.00000000D+00  0.11252567D-04  0.20308594D-04  0.29982271D-04
  0.13594825D-03 -0.12256394D-03  0.00000000D+00  0.20391294D-03  0.58034789D-04
  0.11252567D-04  0.20308594D-04  0.29982271D-04  0.13594825D-03 -0.12256394D-03
  0.00000000D+00 -0.20391294D-03  0.58034789D-04 -0.11252567D-04 -0.20308594D-04
 -0.29982271D-04 -0.13594825D-03  0.12256394D-03  0.00000000D+00 -0.20391294D-03
  0.58034789D-04 -0.11252567D-04 -0.20308594D-04 -0.29982271D-04 -0.13594825D-03
  0.12256394D-03  0.00000000D+00  0.20391294D-03  0.58034789D-04
MO    3     MO 0.0        OCC NO =    2.0000000  ORB. ENERGY =   -1.031324
 -0.39939902D-01 -0.74543601D-01 -0.12722600D+00 -0.19772191D+00 -0.26483452D+00
 -0.27204242D+00 -0.29865648D+00 -0.88500566D-01  0.11646358D+00  0.57095309D-01
  0.60606920D-02  0.00000000D+00  0.00000000D+00  0.00000000D+00  0.00000000D+00
  0.00000000D+00  0.00000000D+00  0.00000000D+00  0.00000000D+00 -0.11026059D+00
 -0.11768829D+00 -0.10306415D+00 -0.65083725D-01  0.00000000D+00  0.00000000D+00
 -0.14912880D-01  0.00000000D+00  0.00000000D+00 -0.30532158D-03 -0.20478091D-01
 -0.24289319D-02  0.22907023D-01  0.00000000D+00  0.00000000D+00  0.00000000D+00
 -0.17532321D-02 -0.12016529D-02  0.29548850D-02  0.00000000D+00  0.00000000D+00
  0.00000000D+00  0.00000000D+00  0.00000000D+00 -0.42961777D-02  0.00000000D+00
  0.00000000D+00  0.23255962D-02  0.00000000D+00  0.00000000D+00  0.10562937D-01
  0.00000000D+00 -0.39939902D-01 -0.74543601D-01 -0.12722600D+00 -0.19772191D+00
 -0.26483452D+00 -0.27204242D+00 -0.29865648D+00 -0.88500566D-01  0.11646358D+00
  0.57095309D-01  0.60606920D-02  0.00000000D+00  0.00000000D+00  0.00000000D+00
  0.00000000D+00  0.00000000D+00  0.00000000D+00  0.00000000D+00  0.00000000D+00
  0.11026059D+00  0.11768829D+00  0.10306415D+00  0.65083725D-01  0.00000000D+00
  0.00000000D+00  0.14912880D-01  0.00000000D+00  0.00000000D+00  0.30532158D-03
 -0.20478091D-01 -0.24289319D-02  0.22907023D-01  0.00000000D+00  0.00000000D+00
  0.00000000D+00 -0.17532321D-02 -0.12016529D-02  0.29548850D-02  0.00000000D+00
  0.00000000D+00  0.00000000D+00  0.00000000D+00  0.00000000D+00  0.42961777D-02
  0.00000000D+00  0.00000000D+00 -0.23255962D-02  0.00000000D+00  0.00000000D+00
 -0.10562937D-01  0.00000000D+00  0.12768326D-01  0.23044228D-01  0.34020983D-01
  0.18755985D-01  0.74731380D-04  0.00000000D+00 -0.80819966D-02 -0.68297217D-02
  0.12768326D-01  0.23044228D-01  0.34020983D-01  0.18755985D-01  0.74731380D-04
  0.00000000D+00  0.80819966D-02 -0.68297217D-02  0.12768326D-01  0.23044228D-01
  0.34020983D-01  0.18755985D-01  0.74731380D-04  0.00000000D+00 -0.80819966D-02
  0.68297217D-02  0.12768326D-01  0.23044228D-01  0.34020983D-01  0.18755985D-01
  0.74731380D-04  0.00000000D+00  0.80819966D-02  0.68297217D-02
MO    4     MO 0.0        OCC NO =    2.0000000  ORB. ENERGY =   -0.791309
 -0.30669884D-01 -0.57242093D-01 -0.97696953D-01 -0.15183082D+00 -0.20336665D+00
 -0.20890160D+00 -0.23180542D+00 -0.68690660D-01  0.91750413D-01  0.56814648D-01
  0.68089359D-02  0.00000000D+00  0.00000000D+00  0.00000000D+00  0.00000000D+00
  0.00000000D+00  0.00000000D+00  0.00000000D+00  0.00000000D+00  0.15697938D+00
  0.16755429D+00  0.14673372D+00  0.92660516D-01  0.00000000D+00  0.00000000D+00
  0.26885267D-01  0.00000000D+00  0.00000000D+00  0.17845343D-02 -0.14919071D-01
  0.18681602D-01 -0.37625311D-02  0.00000000D+00  0.00000000D+00  0.00000000D+00
 -0.20049578D-02  0.19470873D-02  0.57870415D-04  0.00000000D+00  0.00000000D+00
  0.00000000D+00  0.00000000D+00  0.00000000D+00 -0.20121091D-02  0.00000000D+00
  0.00000000D+00 -0.38342904D-02  0.00000000D+00  0.00000000D+00  0.98706176D-02
  0.00000000D+00  0.30669884D-01  0.57242093D-01  0.97696953D-01  0.15183082D+00
  0.20336665D+00  0.20890160D+00  0.23180542D+00  0.68690660D-01 -0.91750413D-01
 -0.56814648D-01 -0.68089359D-02  0.00000000D+00  0.00000000D+00  0.00000000D+00
  0.00000000D+00  0.00000000D+00  0.00000000D+00  0.00000000D+00  0.00000000D+00
  0.15697938D+00  0.16755429D+00  0.14673372D+00  0.92660516D-01  0.00000000D+00
  0.00000000D+00  0.26885267D-01  0.00000000D+00  0.00000000D+00  0.17845343D-02
  0.14919071D-01 -0.18681602D-01  0.37625311D-02  0.00000000D+00  0.00000000D+00
  0.00000000D+00  0.20049578D-02 -0.19470873D-02 -0.57870415D-04  0.00000000D+00
  0.00000000D+00  0.00000000D+00  0.00000000D+00  0.00000000D+00 -0.20121091D-02
  0.00000000D+00  0.00000000D+00 -0.38342904D-02  0.00000000D+00  0.00000000D+00
  0.98706176D-02  0.00000000D+00  0.22281285D-01  0.40213183D-01  0.59368098D-01
  0.35690981D-01  0.29922858D-02  0.00000000D+00 -0.14245242D-01 -0.56687581D-02
  0.22281285D-01  0.40213183D-01  0.59368098D-01  0.35690981D-01  0.29922858D-02
  0.00000000D+00  0.14245242D-01 -0.56687581D-02 -0.22281285D-01 -0.40213183D-01
 -0.59368098D-01 -0.35690981D-01 -0.29922858D-02  0.00000000D+00  0.14245242D-01
 -0.56687581D-02 -0.22281285D-01 -0.40213183D-01 -0.59368098D-01 -0.35690981D-01
 -0.29922858D-02  0.00000000D+00 -0.14245242D-01 -0.56687581D-02
MO    5     MO 0.0        OCC NO =    2.0000000  ORB. ENERGY =   -0.642770
  0.00000000D+00  0.00000000D+00  0.00000000D+00  0.00000000D+00  0.00000000D+00
  0.00000000D+00  0.00000000D+00  0.00000000D+00  0.00000000D+00  0.00000000D+00
  0.00000000D+00  0.00000000D+00  0.00000000D+00  0.00000000D+00  0.00000000D+00
  0.31105714D+00  0.33201150D+00  0.29075521D+00  0.18360829D+00  0.00000000D+00
  0.00000000D+00  0.00000000D+00  0.00000000D+00  0.00000000D+00  0.53593785D-01
  0.00000000D+00  0.00000000D+00  0.39301292D-02  0.00000000D+00  0.00000000D+00
  0.00000000D+00  0.00000000D+00  0.00000000D+00  0.00000000D+00  0.19721560D-01
  0.00000000D+00  0.00000000D+00  0.00000000D+00  0.00000000D+00  0.00000000D+00
  0.73723115D-03  0.00000000D+00 -0.33314704D-03  0.00000000D+00  0.00000000D+00
 -0.63621879D-02  0.00000000D+00  0.00000000D+00  0.73616291D-02  0.00000000D+00
  0.00000000D+00  0.00000000D+00  0.00000000D+00  0.00000000D+00  0.00000000D+00
  0.00000000D+00  0.00000000D+00  0.00000000D+00  0.00000000D+00  0.00000000D+00
  0.00000000D+00  0.00000000D+00  0.00000000D+00  0.00000000D+00  0.00000000D+00
  0.00000000D+00  0.31105714D+00  0.33201150D+00  0.29075521D+00  0.18360829D+00
  0.00000000D+00  0.00000000D+00  0.00000000D+00  0.00000000D+00  0.00000000D+00
  0.53593785D-01  0.00000000D+00  0.00000000D+00  0.39301292D-02  0.00000000D+00
  0.00000000D+00  0.00000000D+00  0.00000000D+00  0.00000000D+00  0.00000000D+00
 -0.19721560D-01  0.00000000D+00  0.00000000D+00  0.00000000D+00  0.00000000D+00
  0.00000000D+00 -0.73723115D-03  0.00000000D+00 -0.33314704D-03  0.00000000D+00
  0.00000000D+00 -0.63621879D-02  0.00000000D+00  0.00000000D+00  0.73616291D-02
  0.00000000D+00  0.00000000D+00  0.24081851D-01  0.43462840D-01  0.64165676D-01
  0.43662926D-01  0.54579565D-02  0.00000000D+00 -0.10608311D-01 -0.11566915D-01
 -0.24081851D-01 -0.43462840D-01 -0.64165676D-01 -0.43662926D-01 -0.54579565D-02
  0.00000000D+00 -0.10608311D-01  0.11566915D-01  0.24081851D-01  0.43462840D-01
  0.64165676D-01  0.43662926D-01  0.54579565D-02  0.00000000D+00 -0.10608311D-01
  0.11566915D-01 -0.24081851D-01 -0.43462840D-01 -0.64165676D-01 -0.43662926D-01
 -0.54579565D-02  0.00000000D+00 -0.10608311D-01 -0.11566915D-01
MO    6     MO 0.0        OCC NO =    2.0000000  ORB. ENERGY =   -0.585175
  0.28330166D-02  0.52875257D-02  0.90243931D-02  0.14024808D-01  0.18785239D-01
  0.19296509D-01  0.21947618D-01  0.65037150D-02 -0.11663291D-01  0.19047180D-02
  0.18188299D-02  0.00000000D+00  0.00000000D+00  0.00000000D+00  0.00000000D+00
  0.00000000D+00  0.00000000D+00  0.00000000D+00  0.00000000D+00  0.40731772D+00
  0.43475666D+00  0.38073309D+00  0.24042820D+00  0.00000000D+00  0.00000000D+00
  0.67417098D-01  0.00000000D+00  0.00000000D+00  0.55115952D-02  0.89898661D-03
  0.30192581D-01 -0.31091567D-01  0.00000000D+00  0.00000000D+00  0.00000000D+00
 -0.77311323D-03  0.26072374D-02 -0.18341242D-02  0.00000000D+00  0.00000000D+00
  0.00000000D+00  0.00000000D+00  0.00000000D+00  0.23396126D-02  0.00000000D+00
  0.00000000D+00 -0.69186509D-02  0.00000000D+00  0.00000000D+00 -0.10018675D-03
  0.00000000D+00  0.28330166D-02  0.52875257D-02  0.90243931D-02  0.14024808D-01
  0.18785239D-01  0.19296509D-01  0.21947618D-01  0.65037150D-02 -0.11663291D-01
  0.19047180D-02  0.18188299D-02  0.00000000D+00  0.00000000D+00  0.00000000D+00
  0.00000000D+00  0.00000000D+00  0.00000000D+00  0.00000000D+00  0.00000000D+00
 -0.40731772D+00 -0.43475666D+00 -0.38073309D+00 -0.24042820D+00  0.00000000D+00
  0.00000000D+00 -0.67417098D-01  0.00000000D+00  0.00000000D+00 -0.55115952D-02
  0.89898661D-03  0.30192581D-01 -0.31091567D-01  0.00000000D+00  0.00000000D+00
  0.00000000D+00 -0.77311323D-03  0.26072374D-02 -0.18341242D-02  0.00000000D+00
  0.00000000D+00  0.00000000D+00  0.00000000D+00  0.00000000D+00 -0.23396126D-02
  0.00000000D+00  0.00000000D+00  0.69186509D-02  0.00000000D+00  0.00000000D+00
  0.10018675D-03  0.00000000D+00  0.19129004D-01  0.34523959D-01  0.50968901D-01
  0.34453984D-01  0.56338113D-02  0.00000000D+00 -0.13023243D-01  0.25395130D-03
  0.19129004D-01  0.34523959D-01  0.50968901D-01  0.34453984D-01  0.56338113D-02
  0.00000000D+00  0.13023243D-01  0.25395130D-03  0.19129004D-01  0.34523959D-01
  0.50968901D-01  0.34453984D-01  0.56338113D-02  0.00000000D+00 -0.13023243D-01
 -0.25395130D-03  0.19129004D-01  0.34523959D-01  0.50968901D-01  0.34453984D-01
  0.56338113D-02  0.00000000D+00  0.13023243D-01 -0.25395130D-03
MO    7     MO 0.0        OCC NO =    2.0000000  ORB. ENERGY =   -0.508249
  0.00000000D+00  0.00000000D+00  0.00000000D+00  0.00000000D+00  0.00000000D+00
  0.00000000D+00  0.00000000D+00  0.00000000D+00  0.00000000D+00  0.00000000D+00
  0.00000000D+00  0.00000000D+00  0.00000000D+00  0.00000000D+00  0.00000000D+00
  0.29545518D+00  0.31535851D+00  0.27617155D+00  0.17439889D+00  0.00000000D+00
  0.00000000D+00  0.00000000D+00  0.00000000D+00  0.00000000D+00  0.52613449D-01
  0.00000000D+00  0.00000000D+00  0.88625890D-02  0.00000000D+00  0.00000000D+00
  0.00000000D+00  0.00000000D+00  0.00000000D+00  0.00000000D+00  0.71563528D-01
  0.00000000D+00  0.00000000D+00  0.00000000D+00  0.00000000D+00  0.00000000D+00
  0.88026657D-02  0.00000000D+00  0.23400933D-02  0.00000000D+00  0.00000000D+00
 -0.43767191D-02  0.00000000D+00  0.00000000D+00 -0.26435609D-02  0.00000000D+00
  0.00000000D+00  0.00000000D+00  0.00000000D+00  0.00000000D+00  0.00000000D+00
  0.00000000D+00  0.00000000D+00  0.00000000D+00  0.00000000D+00  0.00000000D+00
  0.00000000D+00  0.00000000D+00  0.00000000D+00  0.00000000D+00  0.00000000D+00
  0.00000000D+00 -0.29545518D+00 -0.31535851D+00 -0.27617155D+00 -0.17439889D+00
  0.00000000D+00  0.00000000D+00  0.00000000D+00  0.00000000D+00  0.00000000D+00
 -0.52613449D-01  0.00000000D+00  0.00000000D+00 -0.88625890D-02  0.00000000D+00
  0.00000000D+00  0.00000000D+00  0.00000000D+00  0.00000000D+00  0.00000000D+00
  0.71563528D-01  0.00000000D+00  0.00000000D+00  0.00000000D+00  0.00000000D+00
  0.00000000D+00  0.88026657D-02  0.00000000D+00 -0.23400933D-02  0.00000000D+00
  0.00000000D+00  0.43767191D-02  0.00000000D+00  0.00000000D+00  0.26435609D-02
  0.00000000D+00  0.00000000D+00  0.28815338D-01  0.52005819D-01  0.76777969D-01
  0.54981536D-01  0.87560930D-02  0.00000000D+00 -0.12033473D-01 -0.10101532D-01
 -0.28815338D-01 -0.52005819D-01 -0.76777969D-01 -0.54981536D-01 -0.87560930D-02
  0.00000000D+00 -0.12033473D-01  0.10101532D-01 -0.28815338D-01 -0.52005819D-01
 -0.76777969D-01 -0.54981536D-01 -0.87560930D-02  0.00000000D+00  0.12033473D-01
 -0.10101532D-01  0.28815338D-01  0.52005819D-01  0.76777969D-01  0.54981536D-01
  0.87560930D-02  0.00000000D+00  0.12033473D-01  0.10101532D-01
MO    8     MO 0.0        OCC NO =    2.0000000  ORB. ENERGY =   -0.375667
  0.00000000D+00  0.00000000D+00  0.00000000D+00  0.00000000D+00  0.00000000D+00
  0.00000000D+00  0.00000000D+00  0.00000000D+00  0.00000000D+00  0.00000000D+00
  0.00000000D+00  0.36314245D+00  0.38760554D+00  0.33944104D+00  0.21435278D+00
  0.00000000D+00  0.00000000D+00  0.00000000D+00  0.00000000D+00  0.00000000D+00
  0.00000000D+00  0.00000000D+00  0.00000000D+00  0.79590358D-01  0.00000000D+00
  0.00000000D+00  0.13847308D-01  0.00000000D+00  0.00000000D+00  0.00000000D+00
  0.00000000D+00  0.00000000D+00  0.00000000D+00 -0.47896587D-01  0.00000000D+00
  0.00000000D+00  0.00000000D+00  0.00000000D+00  0.00000000D+00 -0.90384744D-02
  0.00000000D+00 -0.52819260D-02  0.00000000D+00  0.00000000D+00  0.22824143D-02
  0.00000000D+00  0.00000000D+00  0.13563364D-01  0.00000000D+00  0.00000000D+00
  0.00000000D+00  0.00000000D+00  0.00000000D+00  0.00000000D+00  0.00000000D+00
  0.00000000D+00  0.00000000D+00  0.00000000D+00  0.00000000D+00  0.00000000D+00
  0.00000000D+00  0.00000000D+00  0.36314245D+00  0.38760554D+00  0.33944104D+00
  0.21435278D+00  0.00000000D+00  0.00000000D+00  0.00000000D+00  0.00000000D+00
  0.00000000D+00  0.00000000D+00  0.00000000D+00  0.00000000D+00  0.79590358D-01
  0.00000000D+00  0.00000000D+00  0.13847308D-01  0.00000000D+00  0.00000000D+00
  0.00000000D+00  0.00000000D+00  0.00000000D+00  0.00000000D+00  0.47896587D-01
  0.00000000D+00  0.00000000D+00  0.00000000D+00  0.00000000D+00  0.00000000D+00
  0.90384744D-02  0.00000000D+00 -0.52819260D-02  0.00000000D+00  0.00000000D+00
  0.22824143D-02  0.00000000D+00  0.00000000D+00  0.13563364D-01  0.00000000D+00
  0.00000000D+00  0.00000000D+00  0.00000000D+00  0.00000000D+00  0.00000000D+00
  0.00000000D+00  0.00000000D+00  0.12314563D-01  0.00000000D+00  0.00000000D+00
  0.00000000D+00  0.00000000D+00  0.00000000D+00  0.00000000D+00  0.00000000D+00
  0.12314563D-01  0.00000000D+00  0.00000000D+00  0.00000000D+00  0.00000000D+00
  0.00000000D+00  0.00000000D+00  0.00000000D+00  0.12314563D-01  0.00000000D+00
  0.00000000D+00  0.00000000D+00  0.00000000D+00  0.00000000D+00  0.00000000D+00
  0.00000000D+00  0.12314563D-01  0.00000000D+00  0.00000000D+00
END DATA
 TOTAL ENERGY =      -78.064384022472 THE VIRIAL(-V/T)=   2.00199641
