 C2H6 - base Def2TZVP (allE) - geom opt B3LYP same basis 
GAUSSIAN              9 MOL ORBITALS    150 PRIMITIVES        8 NUCLEI
  C    1    (CENTRE  1)   0.00000000  0.00000000  1.44261693  CHARGE =  6.0
  C    2    (CENTRE  2)  -0.00000000 -0.00000000 -1.44261693  CHARGE =  6.0
  H    3    (CENTRE  3)   0.00000000  1.92197062  2.19387934  CHARGE =  1.0
  H    4    (CENTRE  4)  -1.66447538 -0.96098531  2.19387934  CHARGE =  1.0
  H    5    (CENTRE  5)   1.66447538 -0.96098531  2.19387934  CHARGE =  1.0
  H    6    (CENTRE  6)  -0.00000000 -1.92197062 -2.19387934  CHARGE =  1.0
  H    7    (CENTRE  7)  -1.66447538  0.96098531 -2.19387934  CHARGE =  1.0
  H    8    (CENTRE  8)   1.66447538  0.96098531 -2.19387934  CHARGE =  1.0
CENTRE ASSIGNMENTS    1  1  1  1  1  1  1  1  1  1  1  1  1  1  1  1  1  1  1  1
CENTRE ASSIGNMENTS    1  1  1  1  1  1  1  1  1  1  1  1  1  1  1  1  1  1  1  1
CENTRE ASSIGNMENTS    1  1  1  1  1  1  1  1  1  1  1  2  2  2  2  2  2  2  2  2
CENTRE ASSIGNMENTS    2  2  2  2  2  2  2  2  2  2  2  2  2  2  2  2  2  2  2  2
CENTRE ASSIGNMENTS    2  2  2  2  2  2  2  2  2  2  2  2  2  2  2  2  2  2  2  2
CENTRE ASSIGNMENTS    2  2  3  3  3  3  3  3  3  3  4  4  4  4  4  4  4  4  5  5
CENTRE ASSIGNMENTS    5  5  5  5  5  5  6  6  6  6  6  6  6  6  7  7  7  7  7  7
CENTRE ASSIGNMENTS    7  7  8  8  8  8  8  8  8  8
TYPE ASSIGNMENTS      1  1  1  1  1  1  1  1  1  1  1  2  2  2  2  3  3  3  3  4
TYPE ASSIGNMENTS      4  4  4  2  3  4  2  3  4  5  6  7  8  9 10  5  6  7  8  9
TYPE ASSIGNMENTS     10 11 12 13 17 14 15 18 19 16 20  1  1  1  1  1  1  1  1  1
TYPE ASSIGNMENTS      1  1  2  2  2  2  3  3  3  3  4  4  4  4  2  3  4  2  3  4
TYPE ASSIGNMENTS      5  6  7  8  9 10  5  6  7  8  9 10 11 12 13 17 14 15 18 19
TYPE ASSIGNMENTS     16 20  1  1  1  1  1  2  3  4  1  1  1  1  1  2  3  4  1  1
TYPE ASSIGNMENTS      1  1  1  2  3  4  1  1  1  1  1  2  3  4  1  1  1  1  1  2
TYPE ASSIGNMENTS      3  4  1  1  1  1  1  2  3  4
EXPONENTS  0.1357535D+05 0.2035233D+04 0.4632256D+03 0.1312002D+03 0.4285302D+02
EXPONENTS  0.1558419D+02 0.6206714D+01 0.2576490D+01 0.5769634D+00 0.2297283D+00
EXPONENTS  0.9516444D-01 0.3469723D+02 0.7958262D+01 0.2378083D+01 0.8143321D+00
EXPONENTS  0.3469723D+02 0.7958262D+01 0.2378083D+01 0.8143321D+00 0.3469723D+02
EXPONENTS  0.7958262D+01 0.2378083D+01 0.8143321D+00 0.2888755D+00 0.2888755D+00
EXPONENTS  0.2888755D+00 0.1005682D+00 0.1005682D+00 0.1005682D+00 0.1097000D+01
EXPONENTS  0.1097000D+01 0.1097000D+01 0.1097000D+01 0.1097000D+01 0.1097000D+01
EXPONENTS  0.3180000D+00 0.3180000D+00 0.3180000D+00 0.3180000D+00 0.3180000D+00
EXPONENTS  0.3180000D+00 0.7610000D+00 0.7610000D+00 0.7610000D+00 0.7610000D+00
EXPONENTS  0.7610000D+00 0.7610000D+00 0.7610000D+00 0.7610000D+00 0.7610000D+00
EXPONENTS  0.7610000D+00 0.1357535D+05 0.2035233D+04 0.4632256D+03 0.1312002D+03
EXPONENTS  0.4285302D+02 0.1558419D+02 0.6206714D+01 0.2576490D+01 0.5769634D+00
EXPONENTS  0.2297283D+00 0.9516444D-01 0.3469723D+02 0.7958262D+01 0.2378083D+01
EXPONENTS  0.8143321D+00 0.3469723D+02 0.7958262D+01 0.2378083D+01 0.8143321D+00
EXPONENTS  0.3469723D+02 0.7958262D+01 0.2378083D+01 0.8143321D+00 0.2888755D+00
EXPONENTS  0.2888755D+00 0.2888755D+00 0.1005682D+00 0.1005682D+00 0.1005682D+00
EXPONENTS  0.1097000D+01 0.1097000D+01 0.1097000D+01 0.1097000D+01 0.1097000D+01
EXPONENTS  0.1097000D+01 0.3180000D+00 0.3180000D+00 0.3180000D+00 0.3180000D+00
EXPONENTS  0.3180000D+00 0.3180000D+00 0.7610000D+00 0.7610000D+00 0.7610000D+00
EXPONENTS  0.7610000D+00 0.7610000D+00 0.7610000D+00 0.7610000D+00 0.7610000D+00
EXPONENTS  0.7610000D+00 0.7610000D+00 0.3406134D+02 0.5123575D+01 0.1164663D+01
EXPONENTS  0.3272304D+00 0.1030724D+00 0.8000000D+00 0.8000000D+00 0.8000000D+00
EXPONENTS  0.3406134D+02 0.5123575D+01 0.1164663D+01 0.3272304D+00 0.1030724D+00
EXPONENTS  0.8000000D+00 0.8000000D+00 0.8000000D+00 0.3406134D+02 0.5123575D+01
EXPONENTS  0.1164663D+01 0.3272304D+00 0.1030724D+00 0.8000000D+00 0.8000000D+00
EXPONENTS  0.8000000D+00 0.3406134D+02 0.5123575D+01 0.1164663D+01 0.3272304D+00
EXPONENTS  0.1030724D+00 0.8000000D+00 0.8000000D+00 0.8000000D+00 0.3406134D+02
EXPONENTS  0.5123575D+01 0.1164663D+01 0.3272304D+00 0.1030724D+00 0.8000000D+00
EXPONENTS  0.8000000D+00 0.8000000D+00 0.3406134D+02 0.5123575D+01 0.1164663D+01
EXPONENTS  0.3272304D+00 0.1030724D+00 0.8000000D+00 0.8000000D+00 0.8000000D+00
MO    1     MO 0.0        OCC NO =    2.0000000  ORB. ENERGY =  -10.159091
  0.17942079D+00  0.33486993D+00  0.57153346D+00  0.88822006D+00  0.11897080D+01
  0.12220878D+01  0.79102071D+00  0.23440235D+00  0.12310538D-01 -0.27794641D-02
  0.19448059D-02  0.00000000D+00  0.00000000D+00  0.00000000D+00  0.00000000D+00
 -0.37679299D-14 -0.40217564D-14 -0.35220064D-14 -0.22241031D-14 -0.68110488D-03
 -0.72698750D-03 -0.63665084D-03 -0.40203707D-03  0.00000000D+00  0.18906997D-14
  0.62856570D-03  0.00000000D+00 -0.20259959D-14  0.15256806D-03  0.11621548D-03
  0.11621548D-03 -0.23243097D-03  0.00000000D+00  0.00000000D+00  0.26624996D-14
  0.23995376D-03  0.23995376D-03 -0.47990752D-03  0.00000000D+00  0.00000000D+00
  0.81888327D-14  0.00000000D+00  0.74269223D-03 -0.41663110D-05  0.00000000D+00
 -0.22280767D-02  0.62494666D-05  0.00000000D+00 -0.11575746D-13  0.62494666D-05
  0.00000000D+00  0.17942079D+00  0.33486993D+00  0.57153346D+00  0.88822006D+00
  0.11897080D+01  0.12220878D+01  0.79102071D+00  0.23440235D+00  0.12310538D-01
 -0.27794641D-02  0.19448059D-02  0.00000000D+00  0.00000000D+00  0.00000000D+00
  0.00000000D+00  0.37679299D-14  0.40217564D-14  0.35220064D-14  0.22241031D-14
  0.68110488D-03  0.72698750D-03  0.63665084D-03  0.40203707D-03  0.00000000D+00
 -0.18906997D-14 -0.62856570D-03  0.00000000D+00  0.20259959D-14 -0.15256806D-03
  0.11621548D-03  0.11621548D-03 -0.23243097D-03  0.00000000D+00  0.00000000D+00
  0.26624996D-14  0.23995376D-03  0.23995376D-03 -0.47990752D-03  0.00000000D+00
  0.00000000D+00  0.81888327D-14  0.00000000D+00 -0.74269223D-03  0.41663110D-05
  0.00000000D+00  0.22280767D-02 -0.62494666D-05  0.00000000D+00  0.11575746D-13
 -0.62494666D-05  0.00000000D+00 -0.10360457D-03 -0.18698516D-03 -0.27605259D-03
 -0.68348046D-03 -0.51104097D-03  0.00000000D+00  0.15148889D-02  0.85445528D-03
 -0.10360457D-03 -0.18698516D-03 -0.27605259D-03 -0.68348046D-03 -0.51104097D-03
 -0.13119323D-02 -0.75744445D-03  0.85445528D-03 -0.10360457D-03 -0.18698516D-03
 -0.27605259D-03 -0.68348046D-03 -0.51104097D-03  0.13119323D-02 -0.75744445D-03
  0.85445528D-03 -0.10360457D-03 -0.18698516D-03 -0.27605259D-03 -0.68348046D-03
 -0.51104097D-03  0.00000000D+00 -0.15148889D-02 -0.85445528D-03 -0.10360457D-03
 -0.18698516D-03 -0.27605259D-03 -0.68348046D-03 -0.51104097D-03 -0.13119323D-02
  0.75744445D-03 -0.85445528D-03 -0.10360457D-03 -0.18698516D-03 -0.27605259D-03
 -0.68348046D-03 -0.51104097D-03  0.13119323D-02  0.75744445D-03 -0.85445528D-03
MO    2     MO 0.0        OCC NO =    2.0000000  ORB. ENERGY =  -10.158878
  0.17943990D+00  0.33490559D+00  0.57159432D+00  0.88831464D+00  0.11898347D+01
  0.12222179D+01  0.79097233D+00  0.23438801D+00  0.12008233D-01 -0.33664656D-02
  0.34982903D-02  0.00000000D+00  0.00000000D+00  0.00000000D+00  0.00000000D+00
 -0.49075776D-14 -0.52381764D-14 -0.45872720D-14 -0.28968051D-14 -0.74527520D-04
 -0.79548064D-04 -0.69663291D-04 -0.43991500D-04  0.00000000D+00  0.43610874D-13
  0.44667364D-03  0.00000000D+00 -0.32567354D-14 -0.36401923D-03 -0.10995454D-03
 -0.10995454D-03  0.21990907D-03  0.00000000D+00  0.00000000D+00  0.15157837D-13
 -0.24511779D-04 -0.24511779D-04  0.49023557D-04  0.00000000D+00  0.00000000D+00
  0.16396353D-13  0.00000000D+00  0.52794803D-03 -0.12017694D-02  0.00000000D+00
 -0.15838441D-02  0.18026541D-02  0.00000000D+00 -0.82811006D-14  0.18026541D-02
  0.00000000D+00 -0.17943990D+00 -0.33490559D+00 -0.57159432D+00 -0.88831464D+00
 -0.11898347D+01 -0.12222179D+01 -0.79097233D+00 -0.23438801D+00 -0.12008233D-01
  0.33664656D-02 -0.34982903D-02  0.00000000D+00  0.00000000D+00  0.00000000D+00
  0.00000000D+00 -0.49075776D-14 -0.52381764D-14 -0.45872720D-14 -0.28968051D-14
 -0.74527520D-04 -0.79548064D-04 -0.69663291D-04 -0.43991500D-04  0.00000000D+00
  0.43610874D-13  0.44667364D-03  0.00000000D+00 -0.32567354D-14 -0.36401923D-03
  0.10995454D-03  0.10995454D-03 -0.21990907D-03  0.00000000D+00  0.00000000D+00
 -0.15157837D-13  0.24511779D-04  0.24511779D-04 -0.49023557D-04  0.00000000D+00
  0.00000000D+00 -0.16396353D-13  0.00000000D+00  0.52794803D-03 -0.12017694D-02
  0.00000000D+00 -0.15838441D-02  0.18026541D-02  0.00000000D+00 -0.82811006D-14
  0.18026541D-02  0.00000000D+00 -0.97549632D-04 -0.17605723D-03 -0.25991931D-03
 -0.42459043D-03 -0.42681566D-03  0.00000000D+00  0.15566336D-02  0.36862578D-03
 -0.97549632D-04 -0.17605723D-03 -0.25991931D-03 -0.42459043D-03 -0.42681566D-03
 -0.13480843D-02 -0.77831682D-03  0.36862578D-03 -0.97549632D-04 -0.17605723D-03
 -0.25991931D-03 -0.42459043D-03 -0.42681566D-03  0.13480843D-02 -0.77831682D-03
  0.36862578D-03  0.97549632D-04  0.17605723D-03  0.25991931D-03  0.42459043D-03
  0.42681566D-03  0.00000000D+00  0.15566336D-02  0.36862578D-03  0.97549632D-04
  0.17605723D-03  0.25991931D-03  0.42459043D-03  0.42681566D-03  0.13480843D-02
 -0.77831682D-03  0.36862578D-03  0.97549632D-04  0.17605723D-03  0.25991931D-03
  0.42459043D-03  0.42681566D-03 -0.13480843D-02 -0.77831682D-03  0.36862578D-03
MO    3     MO 0.0        OCC NO =    2.0000000  ORB. ENERGY =   -0.754468
 -0.38933821D-01 -0.72665857D-01 -0.12402120D+00 -0.19274132D+00 -0.25816337D+00
 -0.26518970D+00 -0.27794997D+00 -0.82364627D-01  0.11165535D+00  0.56180933D-01
  0.52926615D-02  0.00000000D+00  0.00000000D+00  0.00000000D+00  0.00000000D+00
 -0.96972217D-13 -0.10350475D-12 -0.90643078D-13 -0.57239974D-13 -0.56252774D-01
 -0.60042240D-01 -0.52581293D-01 -0.33204431D-01  0.00000000D+00  0.11035318D-12
 -0.90923880D-02  0.00000000D+00  0.14531306D-13 -0.32833382D-03 -0.35949028D-02
 -0.35949028D-02  0.71898057D-02  0.00000000D+00  0.00000000D+00  0.32120640D-14
 -0.70279215D-03 -0.70279215D-03  0.14055843D-02  0.00000000D+00  0.00000000D+00
  0.94579848D-13  0.00000000D+00  0.20963521D-02 -0.39761713D-02  0.00000000D+00
 -0.62890564D-02  0.59642570D-02  0.00000000D+00 -0.64474225D-13  0.59642570D-02
  0.00000000D+00 -0.38933821D-01 -0.72665857D-01 -0.12402120D+00 -0.19274132D+00
 -0.25816337D+00 -0.26518970D+00 -0.27794997D+00 -0.82364627D-01  0.11165535D+00
  0.56180933D-01  0.52926615D-02  0.00000000D+00  0.00000000D+00  0.00000000D+00
  0.00000000D+00  0.96972217D-13  0.10350475D-12  0.90643078D-13  0.57239974D-13
  0.56252774D-01  0.60042240D-01  0.52581293D-01  0.33204431D-01  0.00000000D+00
 -0.11035318D-12  0.90923880D-02  0.00000000D+00 -0.14531306D-13  0.32833382D-03
 -0.35949028D-02 -0.35949028D-02  0.71898057D-02  0.00000000D+00  0.00000000D+00
  0.32120640D-14 -0.70279215D-03 -0.70279215D-03  0.14055843D-02  0.00000000D+00
  0.00000000D+00  0.94579848D-13  0.00000000D+00 -0.20963521D-02  0.39761713D-02
  0.00000000D+00  0.62890564D-02 -0.59642570D-02  0.00000000D+00  0.64474225D-13
 -0.59642570D-02  0.00000000D+00  0.13727265D-01  0.24774919D-01  0.36576061D-01
  0.17500536D-01  0.10333778D-02  0.00000000D+00 -0.80615252D-02 -0.46640357D-02
  0.13727265D-01  0.24774919D-01  0.36576061D-01  0.17500536D-01  0.10333778D-02
  0.69814856D-02  0.40307626D-02 -0.46640357D-02  0.13727265D-01  0.24774919D-01
  0.36576061D-01  0.17500536D-01  0.10333778D-02 -0.69814856D-02  0.40307626D-02
 -0.46640357D-02  0.13727265D-01  0.24774919D-01  0.36576061D-01  0.17500536D-01
  0.10333778D-02  0.00000000D+00  0.80615252D-02  0.46640357D-02  0.13727265D-01
  0.24774919D-01  0.36576061D-01  0.17500536D-01  0.10333778D-02  0.69814856D-02
 -0.40307626D-02  0.46640357D-02  0.13727265D-01  0.24774919D-01  0.36576061D-01
  0.17500536D-01  0.10333778D-02 -0.69814856D-02 -0.40307626D-02  0.46640357D-02
MO    4     MO 0.0        OCC NO =    2.0000000  ORB. ENERGY =   -0.617633
 -0.34030744D-01 -0.63514783D-01 -0.10840276D+00 -0.16846871D+00 -0.22565193D+00
 -0.23179340D+00 -0.24473582D+00 -0.72522311D-01  0.98973998D-01  0.59036528D-01
  0.11490449D-01  0.00000000D+00  0.00000000D+00  0.00000000D+00  0.00000000D+00
 -0.37910772D-13 -0.40464630D-13 -0.35436429D-13 -0.22377663D-13  0.13016926D+00
  0.13893811D+00  0.12167343D+00  0.76835256D-01  0.00000000D+00  0.28522942D-12
  0.12997794D-01  0.00000000D+00 -0.28762291D-13  0.98954793D-03  0.54731596D-02
  0.54731596D-02 -0.10946319D-01  0.00000000D+00  0.00000000D+00  0.36176246D-13
 -0.46214484D-03 -0.46214484D-03  0.92428969D-03  0.00000000D+00  0.00000000D+00
  0.12259781D-12  0.00000000D+00  0.19026329D-02 -0.37134906D-02  0.00000000D+00
 -0.57078988D-02  0.55702359D-02  0.00000000D+00 -0.54468830D-13  0.55702359D-02
  0.00000000D+00  0.34030744D-01  0.63514783D-01  0.10840276D+00  0.16846871D+00
  0.22565193D+00  0.23179340D+00  0.24473582D+00  0.72522311D-01 -0.98973998D-01
 -0.59036528D-01 -0.11490449D-01  0.00000000D+00  0.00000000D+00  0.00000000D+00
  0.00000000D+00 -0.37910772D-13 -0.40464630D-13 -0.35436429D-13 -0.22377663D-13
  0.13016926D+00  0.13893811D+00  0.12167343D+00  0.76835256D-01  0.00000000D+00
  0.28522942D-12  0.12997794D-01  0.00000000D+00 -0.28762291D-13  0.98954793D-03
 -0.54731596D-02 -0.54731596D-02  0.10946319D-01  0.00000000D+00  0.00000000D+00
 -0.36176246D-13  0.46214484D-03  0.46214484D-03 -0.92428969D-03  0.00000000D+00
  0.00000000D+00 -0.12259781D-12  0.00000000D+00  0.19026329D-02 -0.37134906D-02
  0.00000000D+00 -0.57078988D-02  0.55702359D-02  0.00000000D+00 -0.54468830D-13
  0.55702359D-02  0.00000000D+00  0.19019798D-01  0.34326863D-01  0.50677922D-01
  0.26231180D-01  0.18219668D-02  0.00000000D+00 -0.11574425D-01 -0.11884505D-02
  0.19019798D-01  0.34326863D-01  0.50677922D-01  0.26231180D-01  0.18219668D-02
  0.10023746D-01  0.57872126D-02 -0.11884505D-02  0.19019798D-01  0.34326863D-01
  0.50677922D-01  0.26231180D-01  0.18219668D-02 -0.10023746D-01  0.57872126D-02
 -0.11884505D-02 -0.19019798D-01 -0.34326863D-01 -0.50677922D-01 -0.26231180D-01
 -0.18219668D-02  0.00000000D+00 -0.11574425D-01 -0.11884505D-02 -0.19019798D-01
 -0.34326863D-01 -0.50677922D-01 -0.26231180D-01 -0.18219668D-02 -0.10023746D-01
  0.57872126D-02 -0.11884505D-02 -0.19019798D-01 -0.34326863D-01 -0.50677922D-01
 -0.26231180D-01 -0.18219668D-02  0.10023746D-01  0.57872126D-02 -0.11884505D-02
MO    5     MO 0.0        OCC NO =    2.0000000  ORB. ENERGY =   -0.437045
  0.95107111D-14  0.17750736D-13  0.30295762D-13  0.47082639D-13  0.63063867D-13
  0.64780251D-13  0.13855660D-12  0.41058333D-13 -0.85308930D-12  0.16320320D-11
  0.67927912D-12  0.00000000D+00  0.00000000D+00  0.00000000D+00  0.00000000D+00
  0.31993176D+00  0.34148396D+00  0.29905060D+00  0.18884673D+00  0.22366746D-12
  0.23873481D-12  0.20906923D-12  0.13202461D-12  0.00000000D+00  0.48331927D-01
 -0.83867430D-12  0.00000000D+00  0.60774287D-02 -0.33890266D-12 -0.13755083D-01
  0.13755083D-01 -0.50912221D-13  0.00000000D+00  0.00000000D+00  0.52463684D-02
  0.10351025D-02 -0.10351025D-02  0.33121438D-12  0.00000000D+00  0.00000000D+00
 -0.35444727D-02  0.00000000D+00 -0.13133973D-02 -0.24648761D-12  0.00000000D+00
 -0.13133973D-02  0.45132723D-03  0.00000000D+00  0.52535892D-02 -0.45132723D-03
  0.00000000D+00 -0.95107111D-14 -0.17750736D-13 -0.30295762D-13 -0.47082639D-13
 -0.63063867D-13 -0.64780251D-13 -0.13855660D-12 -0.41058333D-13  0.85308930D-12
 -0.16320320D-11 -0.67927912D-12  0.00000000D+00  0.00000000D+00  0.00000000D+00
  0.00000000D+00  0.31993176D+00  0.34148396D+00  0.29905060D+00  0.18884673D+00
  0.22366746D-12  0.23873481D-12  0.20906923D-12  0.13202461D-12  0.00000000D+00
  0.48331927D-01 -0.83867430D-12  0.00000000D+00  0.60774287D-02 -0.33890266D-12
  0.13755083D-01 -0.13755083D-01  0.50912221D-13  0.00000000D+00  0.00000000D+00
 -0.52463684D-02 -0.10351025D-02  0.10351025D-02 -0.33121438D-12  0.00000000D+00
  0.00000000D+00  0.35444727D-02  0.00000000D+00 -0.13133973D-02 -0.24648761D-12
  0.00000000D+00 -0.13133973D-02  0.45132723D-03  0.00000000D+00  0.52535892D-02
 -0.45132723D-03  0.00000000D+00  0.28882573D-01  0.52127165D-01  0.76957116D-01
  0.50755212D-01  0.66485148D-02  0.00000000D+00 -0.12109827D-01 -0.10219987D-01
 -0.14441286D-01 -0.26063582D-01 -0.38478558D-01 -0.25377606D-01 -0.33242574D-02
 -0.89550641D-02  0.34007992D-02  0.51099937D-02 -0.14441286D-01 -0.26063582D-01
 -0.38478558D-01 -0.25377606D-01 -0.33242574D-02  0.89550641D-02  0.34007992D-02
  0.51099937D-02 -0.28882573D-01 -0.52127165D-01 -0.76957116D-01 -0.50755212D-01
 -0.66485148D-02  0.00000000D+00 -0.12109827D-01 -0.10219987D-01  0.14441286D-01
  0.26063582D-01  0.38478558D-01  0.25377606D-01  0.33242574D-02  0.89550641D-02
  0.34007992D-02  0.51099937D-02  0.14441286D-01  0.26063582D-01  0.38478558D-01
  0.25377606D-01  0.33242574D-02 -0.89550641D-02  0.34007992D-02  0.51099937D-02
MO    6     MO 0.0        OCC NO =    2.0000000  ORB. ENERGY =   -0.437045
  0.00000000D+00  0.00000000D+00  0.00000000D+00  0.00000000D+00  0.00000000D+00
  0.00000000D+00  0.00000000D+00  0.00000000D+00  0.00000000D+00  0.00000000D+00
  0.00000000D+00  0.31993176D+00  0.34148396D+00  0.29905060D+00  0.18884673D+00
  0.00000000D+00  0.00000000D+00  0.00000000D+00  0.00000000D+00  0.00000000D+00
  0.00000000D+00  0.00000000D+00  0.00000000D+00  0.48331927D-01  0.00000000D+00
  0.00000000D+00  0.60774287D-02  0.00000000D+00  0.00000000D+00  0.00000000D+00
  0.00000000D+00  0.00000000D+00 -0.27510166D-01  0.52463684D-02  0.00000000D+00
  0.00000000D+00  0.00000000D+00  0.00000000D+00  0.20702049D-02 -0.35444727D-02
  0.00000000D+00 -0.13133973D-02  0.00000000D+00  0.00000000D+00 -0.13133973D-02
  0.00000000D+00  0.00000000D+00  0.52535892D-02  0.00000000D+00  0.00000000D+00
  0.90265446D-03  0.00000000D+00  0.00000000D+00  0.00000000D+00  0.00000000D+00
  0.00000000D+00  0.00000000D+00  0.00000000D+00  0.00000000D+00  0.00000000D+00
  0.00000000D+00  0.00000000D+00  0.31993176D+00  0.34148396D+00  0.29905060D+00
  0.18884673D+00  0.00000000D+00  0.00000000D+00  0.00000000D+00  0.00000000D+00
  0.00000000D+00  0.00000000D+00  0.00000000D+00  0.00000000D+00  0.48331927D-01
  0.00000000D+00  0.00000000D+00  0.60774287D-02  0.00000000D+00  0.00000000D+00
  0.00000000D+00  0.00000000D+00  0.00000000D+00  0.27510166D-01 -0.52463684D-02
  0.00000000D+00  0.00000000D+00  0.00000000D+00  0.00000000D+00 -0.20702049D-02
  0.35444727D-02  0.00000000D+00 -0.13133973D-02  0.00000000D+00  0.00000000D+00
 -0.13133973D-02  0.00000000D+00  0.00000000D+00  0.52535892D-02  0.00000000D+00
  0.00000000D+00  0.90265446D-03  0.00000000D+00  0.00000000D+00  0.00000000D+00
  0.00000000D+00  0.00000000D+00  0.85710079D-02  0.00000000D+00  0.00000000D+00
 -0.25013042D-01 -0.45143449D-01 -0.66646817D-01 -0.43955303D-01 -0.57577827D-02
 -0.69396182D-02 -0.89550641D-02  0.88507687D-02  0.25013042D-01  0.45143449D-01
  0.66646817D-01  0.43955303D-01  0.57577827D-02 -0.69396182D-02  0.89550641D-02
 -0.88507687D-02  0.00000000D+00  0.00000000D+00  0.00000000D+00  0.00000000D+00
  0.00000000D+00  0.85710079D-02  0.00000000D+00  0.00000000D+00 -0.25013042D-01
 -0.45143449D-01 -0.66646817D-01 -0.43955303D-01 -0.57577827D-02 -0.69396182D-02
  0.89550641D-02 -0.88507687D-02  0.25013042D-01  0.45143449D-01  0.66646817D-01
  0.43955303D-01  0.57577827D-02 -0.69396182D-02 -0.89550641D-02  0.88507687D-02
MO    7     MO 0.0        OCC NO =    2.0000000  ORB. ENERGY =   -0.370981
  0.47100677D-02  0.87908430D-02  0.15003619D-01  0.23317122D-01  0.31231637D-01
  0.32081656D-01  0.35524145D-01  0.10526833D-01 -0.15005793D-01 -0.11635841D-01
 -0.22556519D-05  0.00000000D+00  0.00000000D+00  0.00000000D+00  0.00000000D+00
 -0.10858935D-11 -0.11590447D-11 -0.10150199D-11 -0.64097240D-12  0.41579736D+00
  0.44380753D+00  0.38865929D+00  0.24543349D+00  0.00000000D+00  0.15621112D-12
  0.68692656D-01  0.00000000D+00  0.30738203D-14  0.87108479D-02  0.14565803D-01
  0.14565803D-01 -0.29131607D-01  0.00000000D+00  0.00000000D+00  0.13918911D-13
  0.90754514D-03  0.90754514D-03 -0.18150903D-02  0.00000000D+00  0.00000000D+00
  0.86029014D-13  0.00000000D+00 -0.30131458D-03  0.19590165D-02  0.00000000D+00
  0.90394373D-03 -0.29385247D-02  0.00000000D+00 -0.95287989D-13 -0.29385247D-02
  0.00000000D+00  0.47100677D-02  0.87908430D-02  0.15003619D-01  0.23317122D-01
  0.31231637D-01  0.32081656D-01  0.35524145D-01  0.10526833D-01 -0.15005793D-01
 -0.11635841D-01 -0.22556519D-05  0.00000000D+00  0.00000000D+00  0.00000000D+00
  0.00000000D+00  0.10858935D-11  0.11590447D-11  0.10150199D-11  0.64097240D-12
 -0.41579736D+00 -0.44380753D+00 -0.38865929D+00 -0.24543349D+00  0.00000000D+00
 -0.15621112D-12 -0.68692656D-01  0.00000000D+00 -0.30738203D-14 -0.87108479D-02
  0.14565803D-01  0.14565803D-01 -0.29131607D-01  0.00000000D+00  0.00000000D+00
  0.13918911D-13  0.90754514D-03  0.90754514D-03 -0.18150903D-02  0.00000000D+00
  0.00000000D+00  0.86029014D-13  0.00000000D+00  0.30131458D-03 -0.19590165D-02
  0.00000000D+00 -0.90394373D-03  0.29385247D-02  0.00000000D+00  0.95287989D-13
  0.29385247D-02  0.00000000D+00  0.13181755D-01  0.23790385D-01  0.35122559D-01
  0.23056740D-01  0.51891111D-02  0.00000000D+00 -0.90043198D-02  0.79247006D-02
  0.13181755D-01  0.23790385D-01  0.35122559D-01  0.23056740D-01  0.51891111D-02
  0.77979697D-02  0.45021599D-02  0.79247006D-02  0.13181755D-01  0.23790385D-01
  0.35122559D-01  0.23056740D-01  0.51891111D-02 -0.77979697D-02  0.45021599D-02
  0.79247006D-02  0.13181755D-01  0.23790385D-01  0.35122559D-01  0.23056740D-01
  0.51891111D-02  0.00000000D+00  0.90043198D-02 -0.79247006D-02  0.13181755D-01
  0.23790385D-01  0.35122559D-01  0.23056740D-01  0.51891111D-02  0.77979697D-02
 -0.45021599D-02 -0.79247006D-02  0.13181755D-01  0.23790385D-01  0.35122559D-01
  0.23056740D-01  0.51891111D-02 -0.77979697D-02 -0.45021599D-02 -0.79247006D-02
MO    8     MO 0.0        OCC NO =    2.0000000  ORB. ENERGY =   -0.345776
  0.00000000D+00  0.00000000D+00  0.00000000D+00  0.00000000D+00  0.00000000D+00
  0.00000000D+00  0.00000000D+00  0.00000000D+00  0.00000000D+00  0.00000000D+00
  0.00000000D+00  0.31646973D+00  0.33778871D+00  0.29581453D+00  0.18680319D+00
  0.00000000D+00  0.00000000D+00  0.00000000D+00  0.00000000D+00  0.00000000D+00
  0.00000000D+00  0.00000000D+00  0.00000000D+00  0.48142713D-01  0.00000000D+00
  0.00000000D+00  0.82007635D-02  0.00000000D+00  0.00000000D+00  0.00000000D+00
  0.00000000D+00  0.00000000D+00 -0.35319683D-01  0.42042244D-01  0.00000000D+00
  0.00000000D+00  0.00000000D+00  0.00000000D+00 -0.21093876D-02  0.74258057D-02
  0.00000000D+00  0.15026808D-02  0.00000000D+00  0.00000000D+00  0.15026808D-02
  0.00000000D+00  0.00000000D+00 -0.60107230D-02  0.00000000D+00  0.00000000D+00
  0.89888224D-03  0.00000000D+00  0.00000000D+00  0.00000000D+00  0.00000000D+00
  0.00000000D+00  0.00000000D+00  0.00000000D+00  0.00000000D+00  0.00000000D+00
  0.00000000D+00  0.00000000D+00 -0.31646973D+00 -0.33778871D+00 -0.29581453D+00
 -0.18680319D+00  0.00000000D+00  0.00000000D+00  0.00000000D+00  0.00000000D+00
  0.00000000D+00  0.00000000D+00  0.00000000D+00  0.00000000D+00 -0.48142713D-01
  0.00000000D+00  0.00000000D+00 -0.82007635D-02  0.00000000D+00  0.00000000D+00
  0.00000000D+00  0.00000000D+00  0.00000000D+00 -0.35319683D-01  0.42042244D-01
  0.00000000D+00  0.00000000D+00  0.00000000D+00  0.00000000D+00 -0.21093876D-02
  0.74258057D-02  0.00000000D+00 -0.15026808D-02  0.00000000D+00  0.00000000D+00
 -0.15026808D-02  0.00000000D+00  0.00000000D+00  0.60107230D-02  0.00000000D+00
  0.00000000D+00 -0.89888224D-03  0.00000000D+00  0.00000000D+00  0.00000000D+00
  0.00000000D+00  0.00000000D+00  0.90732086D-02  0.00000000D+00  0.00000000D+00
 -0.29504385D-01 -0.53249410D-01 -0.78613925D-01 -0.52292993D-01 -0.12661414D-01
 -0.61288160D-02 -0.87768930D-02  0.66758187D-02  0.29504385D-01  0.53249410D-01
  0.78613925D-01  0.52292993D-01  0.12661414D-01 -0.61288160D-02  0.87768930D-02
 -0.66758187D-02  0.00000000D+00  0.00000000D+00  0.00000000D+00  0.00000000D+00
  0.00000000D+00 -0.90732086D-02  0.00000000D+00  0.00000000D+00  0.29504385D-01
  0.53249410D-01  0.78613925D-01  0.52292993D-01  0.12661414D-01  0.61288160D-02
 -0.87768930D-02  0.66758187D-02 -0.29504385D-01 -0.53249410D-01 -0.78613925D-01
 -0.52292993D-01 -0.12661414D-01  0.61288160D-02  0.87768930D-02 -0.66758187D-02
MO    9     MO 0.0        OCC NO =    2.0000000  ORB. ENERGY =   -0.345776
  0.50615937D-14  0.94469290D-14  0.16123383D-13  0.25057347D-13  0.33562545D-13
  0.34476003D-13  0.10186840D-12  0.30186558D-13 -0.50561683D-12  0.96555118D-12
 -0.37388679D-12  0.00000000D+00  0.00000000D+00  0.00000000D+00  0.00000000D+00
  0.31646973D+00  0.33778871D+00  0.29581453D+00  0.18680319D+00  0.13204320D-11
  0.14093829D-11  0.12342507D-11  0.77941391D-12  0.00000000D+00  0.48142713D-01
  0.42936490D-12  0.00000000D+00  0.82007635D-02  0.41826437D-13 -0.17659842D-01
  0.17659842D-01 -0.81611631D-13  0.00000000D+00  0.00000000D+00  0.42042244D-01
 -0.10546938D-02  0.10546938D-02 -0.14070019D-12  0.00000000D+00  0.00000000D+00
  0.74258057D-02  0.00000000D+00  0.15026808D-02 -0.12068434D-12  0.00000000D+00
  0.15026808D-02  0.44944112D-03  0.00000000D+00 -0.60107230D-02 -0.44944112D-03
  0.00000000D+00  0.50615937D-14  0.94469290D-14  0.16123383D-13  0.25057347D-13
  0.33562545D-13  0.34476003D-13  0.10186840D-12  0.30186558D-13 -0.50561683D-12
  0.96555118D-12 -0.37388679D-12  0.00000000D+00  0.00000000D+00  0.00000000D+00
  0.00000000D+00 -0.31646973D+00 -0.33778871D+00 -0.29581453D+00 -0.18680319D+00
 -0.13204320D-11 -0.14093829D-11 -0.12342507D-11 -0.77941391D-12  0.00000000D+00
 -0.48142713D-01 -0.42936490D-12  0.00000000D+00 -0.82007635D-02 -0.41826437D-13
 -0.17659842D-01  0.17659842D-01 -0.81611631D-13  0.00000000D+00  0.00000000D+00
  0.42042244D-01 -0.10546938D-02  0.10546938D-02 -0.14070019D-12  0.00000000D+00
  0.00000000D+00  0.74258057D-02  0.00000000D+00 -0.15026808D-02  0.12068434D-12
  0.00000000D+00 -0.15026808D-02 -0.44944112D-03  0.00000000D+00  0.60107230D-02
  0.44944112D-03  0.00000000D+00  0.34068730D-01  0.61487122D-01  0.90775542D-01
  0.60382748D-01  0.14620142D-01  0.00000000D+00 -0.11196158D-01 -0.77085714D-02
 -0.17034365D-01 -0.30743561D-01 -0.45387771D-01 -0.30191374D-01 -0.73100708D-02
 -0.87768930D-02  0.40058671D-02  0.38542857D-02 -0.17034365D-01 -0.30743561D-01
 -0.45387771D-01 -0.30191374D-01 -0.73100708D-02  0.87768930D-02  0.40058671D-02
  0.38542857D-02  0.34068730D-01  0.61487122D-01  0.90775542D-01  0.60382748D-01
  0.14620142D-01  0.00000000D+00  0.11196158D-01  0.77085714D-02 -0.17034365D-01
 -0.30743561D-01 -0.45387771D-01 -0.30191374D-01 -0.73100708D-02 -0.87768930D-02
 -0.40058671D-02 -0.38542857D-02 -0.17034365D-01 -0.30743561D-01 -0.45387771D-01
 -0.30191374D-01 -0.73100708D-02  0.87768930D-02 -0.40058671D-02 -0.38542857D-02
END DATA
 TOTAL ENERGY =      -79.863984430395 THE VIRIAL(-V/T)=   2.00629895
