 C8H18 - base Def2TZVP (allE) - geom opt same basis - Orb
GAUSSIAN             33 MOL ORBITALS    552 PRIMITIVES       26 NUCLEI
  C    1    (CENTRE  1)   0.00536385  1.44487465  0.00000000  CHARGE =  6.0
  C    2    (CENTRE  2)  -0.00536385 -1.44487465  0.00000000  CHARGE =  6.0
  C    3    (CENTRE  3)  -2.63790576  2.61086078  0.00000000  CHARGE =  6.0
  C    4    (CENTRE  4)   2.63790576 -2.61086078  0.00000000  CHARGE =  6.0
  C    5    (CENTRE  5)  -2.63790576  5.50025204  0.00000000  CHARGE =  6.0
  C    6    (CENTRE  6)   2.63790576 -5.50025204  0.00000000  CHARGE =  6.0
  C    7    (CENTRE  7)  -5.28793845  6.64364800  0.00000000  CHARGE =  6.0
  C    8    (CENTRE  8)   5.28793845 -6.64364800  0.00000000  CHARGE =  6.0
  H    9    (CENTRE  9)   1.05147791  2.12384322  1.65403537  CHARGE =  1.0
  H   10    (CENTRE 10)   1.05147791  2.12384322 -1.65403537  CHARGE =  1.0
  H   11    (CENTRE 11)  -1.05147791 -2.12384322  1.65403537  CHARGE =  1.0
  H   12    (CENTRE 12)  -1.05147791 -2.12384322 -1.65403537  CHARGE =  1.0
  H   13    (CENTRE 13)  -3.68476996  1.93129661 -1.65378953  CHARGE =  1.0
  H   14    (CENTRE 14)  -3.68476996  1.93129661  1.65378953  CHARGE =  1.0
  H   15    (CENTRE 15)   3.68476996 -1.93129661 -1.65378953  CHARGE =  1.0
  H   16    (CENTRE 16)   3.68476996 -1.93129661  1.65378953  CHARGE =  1.0
  H   17    (CENTRE 17)  -1.59388000  6.18022318  1.65305001  CHARGE =  1.0
  H   18    (CENTRE 18)  -1.59388000  6.18022318 -1.65305001  CHARGE =  1.0
  H   19    (CENTRE 19)   1.59388000 -6.18022318  1.65305001  CHARGE =  1.0
  H   20    (CENTRE 20)   1.59388000 -6.18022318 -1.65305001  CHARGE =  1.0
  H   21    (CENTRE 21)  -5.22133541  8.70634291  0.00000000  CHARGE =  1.0
  H   22    (CENTRE 22)  -6.35663849  6.05155446 -1.66560956  CHARGE =  1.0
  H   23    (CENTRE 23)  -6.35663849  6.05155446  1.66560956  CHARGE =  1.0
  H   24    (CENTRE 24)   5.22133541 -8.70634291  0.00000000  CHARGE =  1.0
  H   25    (CENTRE 25)   6.35663849 -6.05155446 -1.66560956  CHARGE =  1.0
  H   26    (CENTRE 26)   6.35663849 -6.05155446  1.66560956  CHARGE =  1.0
CENTRE ASSIGNMENTS    1  1  1  1  1  1  1  1  1  1  1  1  1  1  1  1  1  1  1  1
CENTRE ASSIGNMENTS    1  1  1  1  1  1  1  1  1  1  1  1  1  1  1  1  1  1  1  1
CENTRE ASSIGNMENTS    1  1  1  1  1  1  1  1  1  1  1  2  2  2  2  2  2  2  2  2
CENTRE ASSIGNMENTS    2  2  2  2  2  2  2  2  2  2  2  2  2  2  2  2  2  2  2  2
CENTRE ASSIGNMENTS    2  2  2  2  2  2  2  2  2  2  2  2  2  2  2  2  2  2  2  2
CENTRE ASSIGNMENTS    2  2  3  3  3  3  3  3  3  3  3  3  3  3  3  3  3  3  3  3
CENTRE ASSIGNMENTS    3  3  3  3  3  3  3  3  3  3  3  3  3  3  3  3  3  3  3  3
CENTRE ASSIGNMENTS    3  3  3  3  3  3  3  3  3  3  3  3  3  4  4  4  4  4  4  4
CENTRE ASSIGNMENTS    4  4  4  4  4  4  4  4  4  4  4  4  4  4  4  4  4  4  4  4
CENTRE ASSIGNMENTS    4  4  4  4  4  4  4  4  4  4  4  4  4  4  4  4  4  4  4  4
CENTRE ASSIGNMENTS    4  4  4  4  5  5  5  5  5  5  5  5  5  5  5  5  5  5  5  5
CENTRE ASSIGNMENTS    5  5  5  5  5  5  5  5  5  5  5  5  5  5  5  5  5  5  5  5
CENTRE ASSIGNMENTS    5  5  5  5  5  5  5  5  5  5  5  5  5  5  5  6  6  6  6  6
CENTRE ASSIGNMENTS    6  6  6  6  6  6  6  6  6  6  6  6  6  6  6  6  6  6  6  6
CENTRE ASSIGNMENTS    6  6  6  6  6  6  6  6  6  6  6  6  6  6  6  6  6  6  6  6
CENTRE ASSIGNMENTS    6  6  6  6  6  6  7  7  7  7  7  7  7  7  7  7  7  7  7  7
CENTRE ASSIGNMENTS    7  7  7  7  7  7  7  7  7  7  7  7  7  7  7  7  7  7  7  7
CENTRE ASSIGNMENTS    7  7  7  7  7  7  7  7  7  7  7  7  7  7  7  7  7  8  8  8
CENTRE ASSIGNMENTS    8  8  8  8  8  8  8  8  8  8  8  8  8  8  8  8  8  8  8  8
CENTRE ASSIGNMENTS    8  8  8  8  8  8  8  8  8  8  8  8  8  8  8  8  8  8  8  8
CENTRE ASSIGNMENTS    8  8  8  8  8  8  8  8  9  9  9  9  9  9  9  9 10 10 10 10
CENTRE ASSIGNMENTS   10 10 10 10 11 11 11 11 11 11 11 11 12 12 12 12 12 12 12 12
CENTRE ASSIGNMENTS   13 13 13 13 13 13 13 13 14 14 14 14 14 14 14 14 15 15 15 15
CENTRE ASSIGNMENTS   15 15 15 15 16 16 16 16 16 16 16 16 17 17 17 17 17 17 17 17
CENTRE ASSIGNMENTS   18 18 18 18 18 18 18 18 19 19 19 19 19 19 19 19 20 20 20 20
CENTRE ASSIGNMENTS   20 20 20 20 21 21 21 21 21 21 21 21 22 22 22 22 22 22 22 22
CENTRE ASSIGNMENTS   23 23 23 23 23 23 23 23 24 24 24 24 24 24 24 24 25 25 25 25
CENTRE ASSIGNMENTS   25 25 25 25 26 26 26 26 26 26 26 26
TYPE ASSIGNMENTS      1  1  1  1  1  1  1  1  1  1  1  2  2  2  2  3  3  3  3  4
TYPE ASSIGNMENTS      4  4  4  2  3  4  2  3  4  5  6  7  8  9 10  5  6  7  8  9
TYPE ASSIGNMENTS     10 11 12 13 17 14 15 18 19 16 20  1  1  1  1  1  1  1  1  1
TYPE ASSIGNMENTS      1  1  2  2  2  2  3  3  3  3  4  4  4  4  2  3  4  2  3  4
TYPE ASSIGNMENTS      5  6  7  8  9 10  5  6  7  8  9 10 11 12 13 17 14 15 18 19
TYPE ASSIGNMENTS     16 20  1  1  1  1  1  1  1  1  1  1  1  2  2  2  2  3  3  3
TYPE ASSIGNMENTS      3  4  4  4  4  2  3  4  2  3  4  5  6  7  8  9 10  5  6  7
TYPE ASSIGNMENTS      8  9 10 11 12 13 17 14 15 18 19 16 20  1  1  1  1  1  1  1
TYPE ASSIGNMENTS      1  1  1  1  2  2  2  2  3  3  3  3  4  4  4  4  2  3  4  2
TYPE ASSIGNMENTS      3  4  5  6  7  8  9 10  5  6  7  8  9 10 11 12 13 17 14 15
TYPE ASSIGNMENTS     18 19 16 20  1  1  1  1  1  1  1  1  1  1  1  2  2  2  2  3
TYPE ASSIGNMENTS      3  3  3  4  4  4  4  2  3  4  2  3  4  5  6  7  8  9 10  5
TYPE ASSIGNMENTS      6  7  8  9 10 11 12 13 17 14 15 18 19 16 20  1  1  1  1  1
TYPE ASSIGNMENTS      1  1  1  1  1  1  2  2  2  2  3  3  3  3  4  4  4  4  2  3
TYPE ASSIGNMENTS      4  2  3  4  5  6  7  8  9 10  5  6  7  8  9 10 11 12 13 17
TYPE ASSIGNMENTS     14 15 18 19 16 20  1  1  1  1  1  1  1  1  1  1  1  2  2  2
TYPE ASSIGNMENTS      2  3  3  3  3  4  4  4  4  2  3  4  2  3  4  5  6  7  8  9
TYPE ASSIGNMENTS     10  5  6  7  8  9 10 11 12 13 17 14 15 18 19 16 20  1  1  1
TYPE ASSIGNMENTS      1  1  1  1  1  1  1  1  2  2  2  2  3  3  3  3  4  4  4  4
TYPE ASSIGNMENTS      2  3  4  2  3  4  5  6  7  8  9 10  5  6  7  8  9 10 11 12
TYPE ASSIGNMENTS     13 17 14 15 18 19 16 20  1  1  1  1  1  2  3  4  1  1  1  1
TYPE ASSIGNMENTS      1  2  3  4  1  1  1  1  1  2  3  4  1  1  1  1  1  2  3  4
TYPE ASSIGNMENTS      1  1  1  1  1  2  3  4  1  1  1  1  1  2  3  4  1  1  1  1
TYPE ASSIGNMENTS      1  2  3  4  1  1  1  1  1  2  3  4  1  1  1  1  1  2  3  4
TYPE ASSIGNMENTS      1  1  1  1  1  2  3  4  1  1  1  1  1  2  3  4  1  1  1  1
TYPE ASSIGNMENTS      1  2  3  4  1  1  1  1  1  2  3  4  1  1  1  1  1  2  3  4
TYPE ASSIGNMENTS      1  1  1  1  1  2  3  4  1  1  1  1  1  2  3  4  1  1  1  1
TYPE ASSIGNMENTS      1  2  3  4  1  1  1  1  1  2  3  4
EXPONENTS  0.1357535D+05 0.2035233D+04 0.4632256D+03 0.1312002D+03 0.4285302D+02
EXPONENTS  0.1558419D+02 0.6206714D+01 0.2576490D+01 0.5769634D+00 0.2297283D+00
EXPONENTS  0.9516444D-01 0.3469723D+02 0.7958262D+01 0.2378083D+01 0.8143321D+00
EXPONENTS  0.3469723D+02 0.7958262D+01 0.2378083D+01 0.8143321D+00 0.3469723D+02
EXPONENTS  0.7958262D+01 0.2378083D+01 0.8143321D+00 0.2888755D+00 0.2888755D+00
EXPONENTS  0.2888755D+00 0.1005682D+00 0.1005682D+00 0.1005682D+00 0.1097000D+01
EXPONENTS  0.1097000D+01 0.1097000D+01 0.1097000D+01 0.1097000D+01 0.1097000D+01
EXPONENTS  0.3180000D+00 0.3180000D+00 0.3180000D+00 0.3180000D+00 0.3180000D+00
EXPONENTS  0.3180000D+00 0.7610000D+00 0.7610000D+00 0.7610000D+00 0.7610000D+00
EXPONENTS  0.7610000D+00 0.7610000D+00 0.7610000D+00 0.7610000D+00 0.7610000D+00
EXPONENTS  0.7610000D+00 0.1357535D+05 0.2035233D+04 0.4632256D+03 0.1312002D+03
EXPONENTS  0.4285302D+02 0.1558419D+02 0.6206714D+01 0.2576490D+01 0.5769634D+00
EXPONENTS  0.2297283D+00 0.9516444D-01 0.3469723D+02 0.7958262D+01 0.2378083D+01
EXPONENTS  0.8143321D+00 0.3469723D+02 0.7958262D+01 0.2378083D+01 0.8143321D+00
EXPONENTS  0.3469723D+02 0.7958262D+01 0.2378083D+01 0.8143321D+00 0.2888755D+00
EXPONENTS  0.2888755D+00 0.2888755D+00 0.1005682D+00 0.1005682D+00 0.1005682D+00
EXPONENTS  0.1097000D+01 0.1097000D+01 0.1097000D+01 0.1097000D+01 0.1097000D+01
EXPONENTS  0.1097000D+01 0.3180000D+00 0.3180000D+00 0.3180000D+00 0.3180000D+00
EXPONENTS  0.3180000D+00 0.3180000D+00 0.7610000D+00 0.7610000D+00 0.7610000D+00
EXPONENTS  0.7610000D+00 0.7610000D+00 0.7610000D+00 0.7610000D+00 0.7610000D+00
EXPONENTS  0.7610000D+00 0.7610000D+00 0.1357535D+05 0.2035233D+04 0.4632256D+03
EXPONENTS  0.1312002D+03 0.4285302D+02 0.1558419D+02 0.6206714D+01 0.2576490D+01
EXPONENTS  0.5769634D+00 0.2297283D+00 0.9516444D-01 0.3469723D+02 0.7958262D+01
EXPONENTS  0.2378083D+01 0.8143321D+00 0.3469723D+02 0.7958262D+01 0.2378083D+01
EXPONENTS  0.8143321D+00 0.3469723D+02 0.7958262D+01 0.2378083D+01 0.8143321D+00
EXPONENTS  0.2888755D+00 0.2888755D+00 0.2888755D+00 0.1005682D+00 0.1005682D+00
EXPONENTS  0.1005682D+00 0.1097000D+01 0.1097000D+01 0.1097000D+01 0.1097000D+01
EXPONENTS  0.1097000D+01 0.1097000D+01 0.3180000D+00 0.3180000D+00 0.3180000D+00
EXPONENTS  0.3180000D+00 0.3180000D+00 0.3180000D+00 0.7610000D+00 0.7610000D+00
EXPONENTS  0.7610000D+00 0.7610000D+00 0.7610000D+00 0.7610000D+00 0.7610000D+00
EXPONENTS  0.7610000D+00 0.7610000D+00 0.7610000D+00 0.1357535D+05 0.2035233D+04
EXPONENTS  0.4632256D+03 0.1312002D+03 0.4285302D+02 0.1558419D+02 0.6206714D+01
EXPONENTS  0.2576490D+01 0.5769634D+00 0.2297283D+00 0.9516444D-01 0.3469723D+02
EXPONENTS  0.7958262D+01 0.2378083D+01 0.8143321D+00 0.3469723D+02 0.7958262D+01
EXPONENTS  0.2378083D+01 0.8143321D+00 0.3469723D+02 0.7958262D+01 0.2378083D+01
EXPONENTS  0.8143321D+00 0.2888755D+00 0.2888755D+00 0.2888755D+00 0.1005682D+00
EXPONENTS  0.1005682D+00 0.1005682D+00 0.1097000D+01 0.1097000D+01 0.1097000D+01
EXPONENTS  0.1097000D+01 0.1097000D+01 0.1097000D+01 0.3180000D+00 0.3180000D+00
EXPONENTS  0.3180000D+00 0.3180000D+00 0.3180000D+00 0.3180000D+00 0.7610000D+00
EXPONENTS  0.7610000D+00 0.7610000D+00 0.7610000D+00 0.7610000D+00 0.7610000D+00
EXPONENTS  0.7610000D+00 0.7610000D+00 0.7610000D+00 0.7610000D+00 0.1357535D+05
EXPONENTS  0.2035233D+04 0.4632256D+03 0.1312002D+03 0.4285302D+02 0.1558419D+02
EXPONENTS  0.6206714D+01 0.2576490D+01 0.5769634D+00 0.2297283D+00 0.9516444D-01
EXPONENTS  0.3469723D+02 0.7958262D+01 0.2378083D+01 0.8143321D+00 0.3469723D+02
EXPONENTS  0.7958262D+01 0.2378083D+01 0.8143321D+00 0.3469723D+02 0.7958262D+01
EXPONENTS  0.2378083D+01 0.8143321D+00 0.2888755D+00 0.2888755D+00 0.2888755D+00
EXPONENTS  0.1005682D+00 0.1005682D+00 0.1005682D+00 0.1097000D+01 0.1097000D+01
EXPONENTS  0.1097000D+01 0.1097000D+01 0.1097000D+01 0.1097000D+01 0.3180000D+00
EXPONENTS  0.3180000D+00 0.3180000D+00 0.3180000D+00 0.3180000D+00 0.3180000D+00
EXPONENTS  0.7610000D+00 0.7610000D+00 0.7610000D+00 0.7610000D+00 0.7610000D+00
EXPONENTS  0.7610000D+00 0.7610000D+00 0.7610000D+00 0.7610000D+00 0.7610000D+00
EXPONENTS  0.1357535D+05 0.2035233D+04 0.4632256D+03 0.1312002D+03 0.4285302D+02
EXPONENTS  0.1558419D+02 0.6206714D+01 0.2576490D+01 0.5769634D+00 0.2297283D+00
EXPONENTS  0.9516444D-01 0.3469723D+02 0.7958262D+01 0.2378083D+01 0.8143321D+00
EXPONENTS  0.3469723D+02 0.7958262D+01 0.2378083D+01 0.8143321D+00 0.3469723D+02
EXPONENTS  0.7958262D+01 0.2378083D+01 0.8143321D+00 0.2888755D+00 0.2888755D+00
EXPONENTS  0.2888755D+00 0.1005682D+00 0.1005682D+00 0.1005682D+00 0.1097000D+01
EXPONENTS  0.1097000D+01 0.1097000D+01 0.1097000D+01 0.1097000D+01 0.1097000D+01
EXPONENTS  0.3180000D+00 0.3180000D+00 0.3180000D+00 0.3180000D+00 0.3180000D+00
EXPONENTS  0.3180000D+00 0.7610000D+00 0.7610000D+00 0.7610000D+00 0.7610000D+00
EXPONENTS  0.7610000D+00 0.7610000D+00 0.7610000D+00 0.7610000D+00 0.7610000D+00
EXPONENTS  0.7610000D+00 0.1357535D+05 0.2035233D+04 0.4632256D+03 0.1312002D+03
EXPONENTS  0.4285302D+02 0.1558419D+02 0.6206714D+01 0.2576490D+01 0.5769634D+00
EXPONENTS  0.2297283D+00 0.9516444D-01 0.3469723D+02 0.7958262D+01 0.2378083D+01
EXPONENTS  0.8143321D+00 0.3469723D+02 0.7958262D+01 0.2378083D+01 0.8143321D+00
EXPONENTS  0.3469723D+02 0.7958262D+01 0.2378083D+01 0.8143321D+00 0.2888755D+00
EXPONENTS  0.2888755D+00 0.2888755D+00 0.1005682D+00 0.1005682D+00 0.1005682D+00
EXPONENTS  0.1097000D+01 0.1097000D+01 0.1097000D+01 0.1097000D+01 0.1097000D+01
EXPONENTS  0.1097000D+01 0.3180000D+00 0.3180000D+00 0.3180000D+00 0.3180000D+00
EXPONENTS  0.3180000D+00 0.3180000D+00 0.7610000D+00 0.7610000D+00 0.7610000D+00
EXPONENTS  0.7610000D+00 0.7610000D+00 0.7610000D+00 0.7610000D+00 0.7610000D+00
EXPONENTS  0.7610000D+00 0.7610000D+00 0.1357535D+05 0.2035233D+04 0.4632256D+03
EXPONENTS  0.1312002D+03 0.4285302D+02 0.1558419D+02 0.6206714D+01 0.2576490D+01
EXPONENTS  0.5769634D+00 0.2297283D+00 0.9516444D-01 0.3469723D+02 0.7958262D+01
EXPONENTS  0.2378083D+01 0.8143321D+00 0.3469723D+02 0.7958262D+01 0.2378083D+01
EXPONENTS  0.8143321D+00 0.3469723D+02 0.7958262D+01 0.2378083D+01 0.8143321D+00
EXPONENTS  0.2888755D+00 0.2888755D+00 0.2888755D+00 0.1005682D+00 0.1005682D+00
EXPONENTS  0.1005682D+00 0.1097000D+01 0.1097000D+01 0.1097000D+01 0.1097000D+01
EXPONENTS  0.1097000D+01 0.1097000D+01 0.3180000D+00 0.3180000D+00 0.3180000D+00
EXPONENTS  0.3180000D+00 0.3180000D+00 0.3180000D+00 0.7610000D+00 0.7610000D+00
EXPONENTS  0.7610000D+00 0.7610000D+00 0.7610000D+00 0.7610000D+00 0.7610000D+00
EXPONENTS  0.7610000D+00 0.7610000D+00 0.7610000D+00 0.3406134D+02 0.5123575D+01
EXPONENTS  0.1164663D+01 0.3272304D+00 0.1030724D+00 0.8000000D+00 0.8000000D+00
EXPONENTS  0.8000000D+00 0.3406134D+02 0.5123575D+01 0.1164663D+01 0.3272304D+00
EXPONENTS  0.1030724D+00 0.8000000D+00 0.8000000D+00 0.8000000D+00 0.3406134D+02
EXPONENTS  0.5123575D+01 0.1164663D+01 0.3272304D+00 0.1030724D+00 0.8000000D+00
EXPONENTS  0.8000000D+00 0.8000000D+00 0.3406134D+02 0.5123575D+01 0.1164663D+01
EXPONENTS  0.3272304D+00 0.1030724D+00 0.8000000D+00 0.8000000D+00 0.8000000D+00
EXPONENTS  0.3406134D+02 0.5123575D+01 0.1164663D+01 0.3272304D+00 0.1030724D+00
EXPONENTS  0.8000000D+00 0.8000000D+00 0.8000000D+00 0.3406134D+02 0.5123575D+01
EXPONENTS  0.1164663D+01 0.3272304D+00 0.1030724D+00 0.8000000D+00 0.8000000D+00
EXPONENTS  0.8000000D+00 0.3406134D+02 0.5123575D+01 0.1164663D+01 0.3272304D+00
EXPONENTS  0.1030724D+00 0.8000000D+00 0.8000000D+00 0.8000000D+00 0.3406134D+02
EXPONENTS  0.5123575D+01 0.1164663D+01 0.3272304D+00 0.1030724D+00 0.8000000D+00
EXPONENTS  0.8000000D+00 0.8000000D+00 0.3406134D+02 0.5123575D+01 0.1164663D+01
EXPONENTS  0.3272304D+00 0.1030724D+00 0.8000000D+00 0.8000000D+00 0.8000000D+00
EXPONENTS  0.3406134D+02 0.5123575D+01 0.1164663D+01 0.3272304D+00 0.1030724D+00
EXPONENTS  0.8000000D+00 0.8000000D+00 0.8000000D+00 0.3406134D+02 0.5123575D+01
EXPONENTS  0.1164663D+01 0.3272304D+00 0.1030724D+00 0.8000000D+00 0.8000000D+00
EXPONENTS  0.8000000D+00 0.3406134D+02 0.5123575D+01 0.1164663D+01 0.3272304D+00
EXPONENTS  0.1030724D+00 0.8000000D+00 0.8000000D+00 0.8000000D+00 0.3406134D+02
EXPONENTS  0.5123575D+01 0.1164663D+01 0.3272304D+00 0.1030724D+00 0.8000000D+00
EXPONENTS  0.8000000D+00 0.8000000D+00 0.3406134D+02 0.5123575D+01 0.1164663D+01
EXPONENTS  0.3272304D+00 0.1030724D+00 0.8000000D+00 0.8000000D+00 0.8000000D+00
EXPONENTS  0.3406134D+02 0.5123575D+01 0.1164663D+01 0.3272304D+00 0.1030724D+00
EXPONENTS  0.8000000D+00 0.8000000D+00 0.8000000D+00 0.3406134D+02 0.5123575D+01
EXPONENTS  0.1164663D+01 0.3272304D+00 0.1030724D+00 0.8000000D+00 0.8000000D+00
EXPONENTS  0.8000000D+00 0.3406134D+02 0.5123575D+01 0.1164663D+01 0.3272304D+00
EXPONENTS  0.1030724D+00 0.8000000D+00 0.8000000D+00 0.8000000D+00 0.3406134D+02
EXPONENTS  0.5123575D+01 0.1164663D+01 0.3272304D+00 0.1030724D+00 0.8000000D+00
EXPONENTS  0.8000000D+00 0.8000000D+00
MO    1     MO 0.0        OCC NO =    2.0000000  ORB. ENERGY =  -11.213255
  0.31947025D-02  0.59625742D-02  0.10176521D-01  0.15815329D-01  0.21183515D-01
  0.21760058D-01  0.14189205D-01  0.42046725D-02  0.85261778D-04 -0.59555190D-04
 -0.89093498D-05 -0.33156344D-04 -0.35389920D-04 -0.30992311D-04 -0.19571258D-04
  0.48938499D-06  0.52235239D-06  0.45744403D-06  0.28887020D-06  0.00000000D+00
  0.00000000D+00  0.00000000D+00  0.00000000D+00  0.96603457D-04  0.41624330D-05
  0.00000000D+00 -0.28806524D-04 -0.35873618D-06  0.00000000D+00  0.11882768D-04
 -0.81824390D-04  0.69941622D-04  0.14493870D-03  0.00000000D+00  0.00000000D+00
 -0.26549000D-04  0.36245583D-04 -0.96965831D-05 -0.42638075D-04  0.00000000D+00
  0.00000000D+00  0.21962517D-06 -0.37914604D-05  0.00000000D+00  0.15613805D-05
 -0.93129179D-05  0.00000000D+00 -0.22202560D-05  0.20687299D-04  0.00000000D+00
  0.00000000D+00  0.31947025D-02  0.59625742D-02  0.10176521D-01  0.15815329D-01
  0.21183515D-01  0.21760058D-01  0.14189205D-01  0.42046725D-02  0.85261778D-04
 -0.59555190D-04 -0.89093498D-05  0.33156344D-04  0.35389920D-04  0.30992311D-04
  0.19571258D-04 -0.48938499D-06 -0.52235239D-06 -0.45744403D-06 -0.28887020D-06
  0.00000000D+00  0.00000000D+00  0.00000000D+00  0.00000000D+00 -0.96603457D-04
 -0.41624330D-05  0.00000000D+00  0.28806524D-04  0.35873618D-06  0.00000000D+00
  0.11882768D-04 -0.81824390D-04  0.69941622D-04  0.14493870D-03  0.00000000D+00
  0.00000000D+00 -0.26549000D-04  0.36245583D-04 -0.96965831D-05 -0.42638075D-04
  0.00000000D+00  0.00000000D+00 -0.21962517D-06  0.37914604D-05  0.00000000D+00
 -0.15613805D-05  0.93129179D-05  0.00000000D+00  0.22202560D-05 -0.20687299D-04
  0.00000000D+00  0.00000000D+00  0.23717803D-01  0.44266770D-01  0.75551544D-01
  0.11741464D+00  0.15726862D+00  0.16154893D+00  0.10510104D+00  0.31144483D-01
  0.98090623D-03 -0.27373543D-03 -0.27132618D-03 -0.40825541D-05 -0.43575752D-05
 -0.38160958D-05 -0.24098169D-05  0.25662302D-03  0.27391042D-03  0.23987387D-03
  0.15147736D-03  0.00000000D+00  0.00000000D+00  0.00000000D+00  0.00000000D+00
 -0.43781544D-05 -0.27882807D-03  0.00000000D+00 -0.13769809D-04 -0.11201106D-03
  0.00000000D+00  0.28587829D-04 -0.10005035D-03  0.71462524D-04  0.77621551D-04
  0.00000000D+00  0.00000000D+00  0.61722260D-04 -0.12278830D-03  0.61066035D-04
 -0.55197101D-04  0.00000000D+00  0.00000000D+00  0.44358138D-04 -0.81829681D-04
  0.00000000D+00  0.42494866D-04  0.11668254D-03  0.00000000D+00 -0.17556928D-03
  0.12880650D-03  0.00000000D+00  0.00000000D+00  0.23717803D-01  0.44266770D-01
  0.75551544D-01  0.11741464D+00  0.15726862D+00  0.16154893D+00  0.10510104D+00
  0.31144483D-01  0.98090623D-03 -0.27373543D-03 -0.27132618D-03  0.40825541D-05
  0.43575752D-05  0.38160958D-05  0.24098169D-05 -0.25662302D-03 -0.27391042D-03
 -0.23987387D-03 -0.15147736D-03  0.00000000D+00  0.00000000D+00  0.00000000D+00
  0.00000000D+00  0.43781544D-05  0.27882807D-03  0.00000000D+00  0.13769809D-04
  0.11201106D-03  0.00000000D+00  0.28587829D-04 -0.10005035D-03  0.71462524D-04
  0.77621551D-04  0.00000000D+00  0.00000000D+00  0.61722260D-04 -0.12278830D-03
  0.61066035D-04 -0.55197101D-04  0.00000000D+00  0.00000000D+00 -0.44358138D-04
  0.81829681D-04  0.00000000D+00 -0.42494866D-04 -0.11668254D-03  0.00000000D+00
  0.17556928D-03 -0.12880650D-03  0.00000000D+00  0.00000000D+00  0.17783669D+00
  0.33191336D+00  0.56648739D+00  0.88037796D+00  0.11792041D+01  0.12112980D+01
  0.78787824D+00  0.23347114D+00  0.63848397D-02 -0.10385382D-02  0.11279688D-02
 -0.82105340D-04 -0.87636364D-04 -0.76746526D-04 -0.48464474D-04  0.51930639D-04
  0.55428945D-04  0.48541253D-04  0.30653196D-04  0.00000000D+00  0.00000000D+00
  0.00000000D+00  0.00000000D+00  0.60367317D-04 -0.15549318D-03  0.00000000D+00
 -0.29646835D-04 -0.40498673D-04  0.00000000D+00  0.34844975D-05 -0.45087649D-04
  0.41603151D-04  0.49222177D-04  0.00000000D+00  0.00000000D+00 -0.40095681D-04
  0.42929419D-04 -0.28337381D-05 -0.35532853D-05  0.00000000D+00  0.00000000D+00
 -0.21192856D-03 -0.31466736D-03  0.00000000D+00 -0.77051949D-04  0.44073772D-03
  0.00000000D+00  0.71283762D-03  0.50326437D-03  0.00000000D+00  0.00000000D+00
  0.17783669D+00  0.33191336D+00  0.56648739D+00  0.88037796D+00  0.11792041D+01
  0.12112980D+01  0.78787824D+00  0.23347114D+00  0.63848397D-02 -0.10385382D-02
  0.11279688D-02  0.82105340D-04  0.87636364D-04  0.76746526D-04  0.48464474D-04
 -0.51930639D-04 -0.55428945D-04 -0.48541253D-04 -0.30653196D-04  0.00000000D+00
  0.00000000D+00  0.00000000D+00  0.00000000D+00 -0.60367317D-04  0.15549318D-03
  0.00000000D+00  0.29646835D-04  0.40498673D-04  0.00000000D+00  0.34844975D-05
 -0.45087649D-04  0.41603151D-04  0.49222177D-04  0.00000000D+00  0.00000000D+00
 -0.40095681D-04  0.42929419D-04 -0.28337381D-05 -0.35532853D-05  0.00000000D+00
  0.00000000D+00  0.21192856D-03  0.31466736D-03  0.00000000D+00  0.77051949D-04
 -0.44073772D-03  0.00000000D+00 -0.71283762D-03 -0.50326437D-03  0.00000000D+00
  0.00000000D+00  0.98615338D-02  0.18405510D-01  0.31413285D-01  0.48819381D-01
  0.65390111D-01  0.67169807D-01  0.43708436D-01  0.12952076D-01  0.42391378D-03
 -0.54413335D-05 -0.27440852D-03  0.19199727D-03  0.20493116D-03  0.17946608D-03
  0.11333059D-03 -0.86963544D-04 -0.92821841D-04 -0.81287647D-04 -0.51332136D-04
  0.00000000D+00  0.00000000D+00  0.00000000D+00  0.00000000D+00 -0.74073488D-04
  0.46623911D-04  0.00000000D+00 -0.68953334D-04  0.23015960D-04  0.00000000D+00
 -0.84315939D-04  0.17499566D-04  0.66816373D-04  0.12326586D-03  0.00000000D+00
  0.00000000D+00 -0.56280154D-04  0.29800431D-04  0.26479724D-04  0.73941058D-04
  0.00000000D+00  0.00000000D+00 -0.43433313D-04  0.17980383D-05  0.00000000D+00
  0.68309617D-04  0.17838293D-03  0.00000000D+00  0.61990323D-04 -0.18377705D-03
  0.00000000D+00  0.00000000D+00  0.98615338D-02  0.18405510D-01  0.31413285D-01
  0.48819381D-01  0.65390111D-01  0.67169807D-01  0.43708436D-01  0.12952076D-01
  0.42391378D-03 -0.54413335D-05 -0.27440852D-03 -0.19199727D-03 -0.20493116D-03
 -0.17946608D-03 -0.11333059D-03  0.86963544D-04  0.92821841D-04  0.81287647D-04
  0.51332136D-04  0.00000000D+00  0.00000000D+00  0.00000000D+00  0.00000000D+00
  0.74073488D-04 -0.46623911D-04  0.00000000D+00  0.68953334D-04 -0.23015960D-04
  0.00000000D+00 -0.84315939D-04  0.17499566D-04  0.66816373D-04  0.12326586D-03
  0.00000000D+00  0.00000000D+00 -0.56280154D-04  0.29800431D-04  0.26479724D-04
  0.73941058D-04  0.00000000D+00  0.00000000D+00  0.43433313D-04 -0.17980383D-05
  0.00000000D+00 -0.68309617D-04 -0.17838293D-03  0.00000000D+00 -0.61990323D-04
  0.18377705D-03  0.00000000D+00  0.00000000D+00  0.29526259D-05  0.53288887D-05
  0.78672206D-05 -0.14080159D-04  0.14338969D-04  0.18922407D-04 -0.16125420D-05
  0.22421060D-04  0.29526259D-05  0.53288887D-05  0.78672206D-05 -0.14080159D-04
  0.14338969D-04  0.18922407D-04 -0.16125420D-05 -0.22421060D-04  0.29526259D-05
  0.53288887D-05  0.78672206D-05 -0.14080159D-04  0.14338969D-04 -0.18922407D-04
  0.16125420D-05  0.22421060D-04  0.29526259D-05  0.53288887D-05  0.78672206D-05
 -0.14080159D-04  0.14338969D-04 -0.18922407D-04  0.16125420D-05 -0.22421060D-04
 -0.55936695D-05 -0.10095435D-04 -0.14904236D-04 -0.52795525D-04 -0.32434661D-04
 -0.37388666D-04 -0.44414047D-04 -0.40942237D-04 -0.55936695D-05 -0.10095435D-04
 -0.14904236D-04 -0.52795525D-04 -0.32434661D-04 -0.37388666D-04 -0.44414047D-04
  0.40942237D-04 -0.55936695D-05 -0.10095435D-04 -0.14904236D-04 -0.52795525D-04
 -0.32434661D-04  0.37388666D-04  0.44414047D-04 -0.40942237D-04 -0.55936695D-05
 -0.10095435D-04 -0.14904236D-04 -0.52795525D-04 -0.32434661D-04  0.37388666D-04
  0.44414047D-04  0.40942237D-04  0.19256844D-05  0.34754683D-05  0.51309527D-05
 -0.79514787D-04 -0.16514527D-03  0.16417693D-03  0.11544070D-03  0.23198961D-03
  0.19256844D-05  0.34754683D-05  0.51309527D-05 -0.79514787D-04 -0.16514527D-03
  0.16417693D-03  0.11544070D-03 -0.23198961D-03  0.19256844D-05  0.34754683D-05
  0.51309527D-05 -0.79514787D-04 -0.16514527D-03 -0.16417693D-03 -0.11544070D-03
  0.23198961D-03  0.19256844D-05  0.34754683D-05  0.51309527D-05 -0.79514787D-04
 -0.16514527D-03 -0.16417693D-03 -0.11544070D-03 -0.23198961D-03 -0.80458253D-05
 -0.14521077D-04 -0.21437962D-04 -0.56290494D-04  0.13692104D-04 -0.25789040D-04
  0.62177081D-04  0.00000000D+00 -0.47316022D-05 -0.85395789D-05 -0.12607272D-04
 -0.43181889D-04 -0.53219929D-05 -0.53504413D-04  0.13474485D-04 -0.26839865D-04
 -0.47316022D-05 -0.85395789D-05 -0.12607272D-04 -0.43181889D-04 -0.53219929D-05
 -0.53504413D-04  0.13474485D-04  0.26839865D-04 -0.80458253D-05 -0.14521077D-04
 -0.21437962D-04 -0.56290494D-04  0.13692104D-04  0.25789040D-04 -0.62177081D-04
  0.00000000D+00 -0.47316022D-05 -0.85395789D-05 -0.12607272D-04 -0.43181889D-04
 -0.53219929D-05  0.53504413D-04 -0.13474485D-04 -0.26839865D-04 -0.47316022D-05
 -0.85395789D-05 -0.12607272D-04 -0.43181889D-04 -0.53219929D-05  0.53504413D-04
 -0.13474485D-04  0.26839865D-04
MO    2     MO 0.0        OCC NO =    2.0000000  ORB. ENERGY =  -11.213255
  0.23711669D-02  0.44255321D-02  0.75532004D-02  0.11738427D-01  0.15722794D-01
  0.16150715D-01  0.10521175D-01  0.31177290D-02  0.32810566D-04  0.10293541D-03
  0.12245062D-03 -0.15493157D-04 -0.16536853D-04 -0.14481957D-04 -0.91451753D-05
  0.39466898D-04  0.42125584D-04  0.36890990D-04  0.23296200D-04  0.00000000D+00
  0.00000000D+00  0.00000000D+00  0.00000000D+00  0.10363759D-03 -0.28838037D-03
  0.00000000D+00  0.28351721D-04 -0.84184288D-04  0.00000000D+00 -0.26835584D-05
 -0.29146206D-04  0.31829765D-04  0.45117458D-04  0.00000000D+00  0.00000000D+00
 -0.78007965D-04  0.11231296D-03 -0.34304992D-04  0.48914828D-04  0.00000000D+00
  0.00000000D+00  0.18201457D-04 -0.28521598D-04  0.00000000D+00 -0.30440827D-04
  0.82991761D-05  0.00000000D+00 -0.24163544D-04  0.77265618D-04  0.00000000D+00
  0.00000000D+00 -0.23711669D-02 -0.44255321D-02 -0.75532004D-02 -0.11738427D-01
 -0.15722794D-01 -0.16150715D-01 -0.10521175D-01 -0.31177290D-02 -0.32810566D-04
 -0.10293541D-03 -0.12245062D-03 -0.15493157D-04 -0.16536853D-04 -0.14481957D-04
 -0.91451753D-05  0.39466898D-04  0.42125584D-04  0.36890990D-04  0.23296200D-04
  0.00000000D+00  0.00000000D+00  0.00000000D+00  0.00000000D+00  0.10363759D-03
 -0.28838037D-03  0.00000000D+00  0.28351721D-04 -0.84184288D-04  0.00000000D+00
  0.26835584D-05  0.29146206D-04 -0.31829765D-04 -0.45117458D-04  0.00000000D+00
  0.00000000D+00  0.78007965D-04 -0.11231296D-03  0.34304992D-04 -0.48914828D-04
  0.00000000D+00  0.00000000D+00  0.18201457D-04 -0.28521598D-04  0.00000000D+00
 -0.30440827D-04  0.82991761D-05  0.00000000D+00 -0.24163544D-04  0.77265618D-04
  0.00000000D+00  0.00000000D+00  0.23635455D-01  0.44113076D-01  0.75289231D-01
  0.11700698D+00  0.15672258D+00  0.16098804D+00  0.10473404D+00  0.31035730D-01
  0.95772920D-03 -0.19202156D-03 -0.18873530D-03 -0.13229552D-04 -0.14120761D-04
 -0.12366092D-04 -0.78090328D-05  0.24439303D-03  0.26085656D-03  0.22844210D-03
  0.14425834D-03  0.00000000D+00  0.00000000D+00  0.00000000D+00  0.00000000D+00
  0.71192282D-04 -0.27250305D-03  0.00000000D+00  0.14771468D-04 -0.12611202D-03
  0.00000000D+00  0.26317846D-04 -0.95305338D-04  0.68987493D-04  0.42186716D-04
  0.00000000D+00  0.00000000D+00  0.86954847D-04 -0.13631486D-03  0.49360015D-04
 -0.52247678D-04  0.00000000D+00  0.00000000D+00  0.55317474D-04 -0.75752321D-04
  0.00000000D+00  0.17048172D-04  0.10213419D-03  0.00000000D+00 -0.18300059D-03
  0.12512277D-03  0.00000000D+00  0.00000000D+00 -0.23635455D-01 -0.44113076D-01
 -0.75289231D-01 -0.11700698D+00 -0.15672258D+00 -0.16098804D+00 -0.10473404D+00
 -0.31035730D-01 -0.95772920D-03  0.19202156D-03  0.18873530D-03 -0.13229552D-04
 -0.14120761D-04 -0.12366092D-04 -0.78090328D-05  0.24439303D-03  0.26085656D-03
  0.22844210D-03  0.14425834D-03  0.00000000D+00  0.00000000D+00  0.00000000D+00
  0.00000000D+00  0.71192282D-04 -0.27250305D-03  0.00000000D+00  0.14771468D-04
 -0.12611202D-03  0.00000000D+00 -0.26317846D-04  0.95305338D-04 -0.68987493D-04
 -0.42186716D-04  0.00000000D+00  0.00000000D+00 -0.86954847D-04  0.13631486D-03
 -0.49360015D-04  0.52247678D-04  0.00000000D+00  0.00000000D+00  0.55317474D-04
 -0.75752321D-04  0.00000000D+00  0.17048172D-04  0.10213419D-03  0.00000000D+00
 -0.18300059D-03  0.12512277D-03  0.00000000D+00  0.00000000D+00  0.17786051D+00
  0.33195782D+00  0.56656327D+00  0.88049589D+00  0.11793620D+01  0.12114602D+01
  0.78798352D+00  0.23350234D+00  0.63943518D-02 -0.10488728D-02  0.11073319D-02
 -0.73794749D-04 -0.78765931D-04 -0.68978347D-04 -0.43558966D-04  0.42695566D-04
  0.45571751D-04  0.39908931D-04  0.25201992D-04  0.00000000D+00  0.00000000D+00
  0.00000000D+00  0.00000000D+00  0.41199147D-04 -0.14118445D-03  0.00000000D+00
 -0.10898863D-04 -0.50654294D-04  0.00000000D+00  0.37163078D-05 -0.43684378D-04
  0.39968070D-04  0.41094061D-04  0.00000000D+00  0.00000000D+00 -0.37005409D-04
  0.37964740D-04 -0.95933084D-06  0.55467660D-05  0.00000000D+00  0.00000000D+00
 -0.20887880D-03 -0.31118413D-03  0.00000000D+00 -0.84801734D-04  0.43944121D-03
  0.00000000D+00  0.71143815D-03  0.49411117D-03  0.00000000D+00  0.00000000D+00
 -0.17786051D+00 -0.33195782D+00 -0.56656327D+00 -0.88049589D+00 -0.11793620D+01
 -0.12114602D+01 -0.78798352D+00 -0.23350234D+00 -0.63943518D-02  0.10488728D-02
 -0.11073319D-02 -0.73794749D-04 -0.78765931D-04 -0.68978347D-04 -0.43558966D-04
  0.42695566D-04  0.45571751D-04  0.39908931D-04  0.25201992D-04  0.00000000D+00
  0.00000000D+00  0.00000000D+00  0.00000000D+00  0.41199147D-04 -0.14118445D-03
  0.00000000D+00 -0.10898863D-04 -0.50654294D-04  0.00000000D+00 -0.37163078D-05
  0.43684378D-04 -0.39968070D-04 -0.41094061D-04  0.00000000D+00  0.00000000D+00
  0.37005409D-04 -0.37964740D-04  0.95933084D-06 -0.55467660D-05  0.00000000D+00
  0.00000000D+00 -0.20887880D-03 -0.31118413D-03  0.00000000D+00 -0.84801734D-04
  0.43944121D-03  0.00000000D+00  0.71143815D-03  0.49411117D-03  0.00000000D+00
  0.00000000D+00  0.98638177D-02  0.18409772D-01  0.31420560D-01  0.48830688D-01
  0.65405255D-01  0.67185364D-01  0.43717848D-01  0.12954865D-01  0.42894652D-03
 -0.19513950D-04 -0.21824128D-03  0.19028238D-03  0.20310074D-03  0.17786311D-03
  0.11231834D-03 -0.89177930D-04 -0.95185399D-04 -0.83357506D-04 -0.52639226D-04
  0.00000000D+00  0.00000000D+00  0.00000000D+00  0.00000000D+00 -0.73339740D-04