 C8H18 - base Def2TZVP (allE) - geom opt same basis - Orb
GAUSSIAN             33 MOL ORBITALS    552 PRIMITIVES       26 NUCLEI
  C    1    (CENTRE  1)   0.00536385  1.44487465 -0.00000000  CHARGE =  6.0
  C    2    (CENTRE  2)  -0.00536385 -1.44487465 -0.00000000  CHARGE =  6.0
  C    3    (CENTRE  3)  -2.63790576  2.61086078 -0.00000000  CHARGE =  6.0
  C    4    (CENTRE  4)   2.63790576 -2.61086078 -0.00000000  CHARGE =  6.0
  C    5    (CENTRE  5)  -2.63790576  5.50025204 -0.00000000  CHARGE =  6.0
  C    6    (CENTRE  6)   2.63790576 -5.50025204 -0.00000000  CHARGE =  6.0
  C    7    (CENTRE  7)  -5.28793845  6.64364800 -0.00000000  CHARGE =  6.0
  C    8    (CENTRE  8)   5.28793845 -6.64364800 -0.00000000  CHARGE =  6.0
  H    9    (CENTRE  9)   1.05147791  2.12384322  1.65403537  CHARGE =  1.0
  H   10    (CENTRE 10)   1.05147791  2.12384322 -1.65403537  CHARGE =  1.0
  H   11    (CENTRE 11)  -1.05147791 -2.12384322  1.65403537  CHARGE =  1.0
  H   12    (CENTRE 12)  -1.05147791 -2.12384322 -1.65403537  CHARGE =  1.0
  H   13    (CENTRE 13)  -3.68476996  1.93129661 -1.65378953  CHARGE =  1.0
  H   14    (CENTRE 14)  -3.68476996  1.93129661  1.65378953  CHARGE =  1.0
  H   15    (CENTRE 15)   3.68476996 -1.93129661 -1.65378953  CHARGE =  1.0
  H   16    (CENTRE 16)   3.68476996 -1.93129661  1.65378953  CHARGE =  1.0
  H   17    (CENTRE 17)  -1.59388000  6.18022318  1.65305001  CHARGE =  1.0
  H   18    (CENTRE 18)  -1.59388000  6.18022318 -1.65305001  CHARGE =  1.0
  H   19    (CENTRE 19)   1.59388000 -6.18022318  1.65305001  CHARGE =  1.0
  H   20    (CENTRE 20)   1.59388000 -6.18022318 -1.65305001  CHARGE =  1.0
  H   21    (CENTRE 21)  -5.22133541  8.70634291 -0.00000000  CHARGE =  1.0
  H   22    (CENTRE 22)  -6.35663849  6.05155446 -1.66560956  CHARGE =  1.0
  H   23    (CENTRE 23)  -6.35663849  6.05155446  1.66560956  CHARGE =  1.0
  H   24    (CENTRE 24)   5.22133541 -8.70634291 -0.00000000  CHARGE =  1.0
  H   25    (CENTRE 25)   6.35663849 -6.05155446 -1.66560956  CHARGE =  1.0
  H   26    (CENTRE 26)   6.35663849 -6.05155446  1.66560956  CHARGE =  1.0
CENTRE ASSIGNMENTS    1  1  1  1  1  1  1  1  1  1  1  1  1  1  1  1  1  1  1  1
CENTRE ASSIGNMENTS    1  1  1  1  1  1  1  1  1  1  1  1  1  1  1  1  1  1  1  1
CENTRE ASSIGNMENTS    1  1  1  1  1  1  1  1  1  1  1  2  2  2  2  2  2  2  2  2
CENTRE ASSIGNMENTS    2  2  2  2  2  2  2  2  2  2  2  2  2  2  2  2  2  2  2  2
CENTRE ASSIGNMENTS    2  2  2  2  2  2  2  2  2  2  2  2  2  2  2  2  2  2  2  2
CENTRE ASSIGNMENTS    2  2  3  3  3  3  3  3  3  3  3  3  3  3  3  3  3  3  3  3
CENTRE ASSIGNMENTS    3  3  3  3  3  3  3  3  3  3  3  3  3  3  3  3  3  3  3  3
CENTRE ASSIGNMENTS    3  3  3  3  3  3  3  3  3  3  3  3  3  4  4  4  4  4  4  4
CENTRE ASSIGNMENTS    4  4  4  4  4  4  4  4  4  4  4  4  4  4  4  4  4  4  4  4
CENTRE ASSIGNMENTS    4  4  4  4  4  4  4  4  4  4  4  4  4  4  4  4  4  4  4  4
CENTRE ASSIGNMENTS    4  4  4  4  5  5  5  5  5  5  5  5  5  5  5  5  5  5  5  5
CENTRE ASSIGNMENTS    5  5  5  5  5  5  5  5  5  5  5  5  5  5  5  5  5  5  5  5
CENTRE ASSIGNMENTS    5  5  5  5  5  5  5  5  5  5  5  5  5  5  5  6  6  6  6  6
CENTRE ASSIGNMENTS    6  6  6  6  6  6  6  6  6  6  6  6  6  6  6  6  6  6  6  6
CENTRE ASSIGNMENTS    6  6  6  6  6  6  6  6  6  6  6  6  6  6  6  6  6  6  6  6
CENTRE ASSIGNMENTS    6  6  6  6  6  6  7  7  7  7  7  7  7  7  7  7  7  7  7  7
CENTRE ASSIGNMENTS    7  7  7  7  7  7  7  7  7  7  7  7  7  7  7  7  7  7  7  7
CENTRE ASSIGNMENTS    7  7  7  7  7  7  7  7  7  7  7  7  7  7  7  7  7  8  8  8
CENTRE ASSIGNMENTS    8  8  8  8  8  8  8  8  8  8  8  8  8  8  8  8  8  8  8  8
CENTRE ASSIGNMENTS    8  8  8  8  8  8  8  8  8  8  8  8  8  8  8  8  8  8  8  8
CENTRE ASSIGNMENTS    8  8  8  8  8  8  8  8  9  9  9  9  9  9  9  9 10 10 10 10
CENTRE ASSIGNMENTS   10 10 10 10 11 11 11 11 11 11 11 11 12 12 12 12 12 12 12 12
CENTRE ASSIGNMENTS   13 13 13 13 13 13 13 13 14 14 14 14 14 14 14 14 15 15 15 15
CENTRE ASSIGNMENTS   15 15 15 15 16 16 16 16 16 16 16 16 17 17 17 17 17 17 17 17
CENTRE ASSIGNMENTS   18 18 18 18 18 18 18 18 19 19 19 19 19 19 19 19 20 20 20 20
CENTRE ASSIGNMENTS   20 20 20 20 21 21 21 21 21 21 21 21 22 22 22 22 22 22 22 22
CENTRE ASSIGNMENTS   23 23 23 23 23 23 23 23 24 24 24 24 24 24 24 24 25 25 25 25
CENTRE ASSIGNMENTS   25 25 25 25 26 26 26 26 26 26 26 26
TYPE ASSIGNMENTS      1  1  1  1  1  1  1  1  1  1  1  2  2  2  2  3  3  3  3  4
TYPE ASSIGNMENTS      4  4  4  2  3  4  2  3  4  5  6  7  8  9 10  5  6  7  8  9
TYPE ASSIGNMENTS     10 11 12 13 17 14 15 18 19 16 20  1  1  1  1  1  1  1  1  1
TYPE ASSIGNMENTS      1  1  2  2  2  2  3  3  3  3  4  4  4  4  2  3  4  2  3  4
TYPE ASSIGNMENTS      5  6  7  8  9 10  5  6  7  8  9 10 11 12 13 17 14 15 18 19
TYPE ASSIGNMENTS     16 20  1  1  1  1  1  1  1  1  1  1  1  2  2  2  2  3  3  3
TYPE ASSIGNMENTS      3  4  4  4  4  2  3  4  2  3  4  5  6  7  8  9 10  5  6  7
TYPE ASSIGNMENTS      8  9 10 11 12 13 17 14 15 18 19 16 20  1  1  1  1  1  1  1
TYPE ASSIGNMENTS      1  1  1  1  2  2  2  2  3  3  3  3  4  4  4  4  2  3  4  2
TYPE ASSIGNMENTS      3  4  5  6  7  8  9 10  5  6  7  8  9 10 11 12 13 17 14 15
TYPE ASSIGNMENTS     18 19 16 20  1  1  1  1  1  1  1  1  1  1  1  2  2  2  2  3
TYPE ASSIGNMENTS      3  3  3  4  4  4  4  2  3  4  2  3  4  5  6  7  8  9 10  5
TYPE ASSIGNMENTS      6  7  8  9 10 11 12 13 17 14 15 18 19 16 20  1  1  1  1  1
TYPE ASSIGNMENTS      1  1  1  1  1  1  2  2  2  2  3  3  3  3  4  4  4  4  2  3
TYPE ASSIGNMENTS      4  2  3  4  5  6  7  8  9 10  5  6  7  8  9 10 11 12 13 17
TYPE ASSIGNMENTS     14 15 18 19 16 20  1  1  1  1  1  1  1  1  1  1  1  2  2  2
TYPE ASSIGNMENTS      2  3  3  3  3  4  4  4  4  2  3  4  2  3  4  5  6  7  8  9
TYPE ASSIGNMENTS     10  5  6  7  8  9 10 11 12 13 17 14 15 18 19 16 20  1  1  1
TYPE ASSIGNMENTS      1  1  1  1  1  1  1  1  2  2  2  2  3  3  3  3  4  4  4  4
TYPE ASSIGNMENTS      2  3  4  2  3  4  5  6  7  8  9 10  5  6  7  8  9 10 11 12
TYPE ASSIGNMENTS     13 17 14 15 18 19 16 20  1  1  1  1  1  2  3  4  1  1  1  1
TYPE ASSIGNMENTS      1  2  3  4  1  1  1  1  1  2  3  4  1  1  1  1  1  2  3  4
TYPE ASSIGNMENTS      1  1  1  1  1  2  3  4  1  1  1  1  1  2  3  4  1  1  1  1
TYPE ASSIGNMENTS      1  2  3  4  1  1  1  1  1  2  3  4  1  1  1  1  1  2  3  4
TYPE ASSIGNMENTS      1  1  1  1  1  2  3  4  1  1  1  1  1  2  3  4  1  1  1  1
TYPE ASSIGNMENTS      1  2  3  4  1  1  1  1  1  2  3  4  1  1  1  1  1  2  3  4
TYPE ASSIGNMENTS      1  1  1  1  1  2  3  4  1  1  1  1  1  2  3  4  1  1  1  1
TYPE ASSIGNMENTS      1  2  3  4  1  1  1  1  1  2  3  4
EXPONENTS  0.1357535D+05 0.2035233D+04 0.4632256D+03 0.1312002D+03 0.4285302D+02
EXPONENTS  0.1558419D+02 0.6206714D+01 0.2576490D+01 0.5769634D+00 0.2297283D+00
EXPONENTS  0.9516444D-01 0.3469723D+02 0.7958262D+01 0.2378083D+01 0.8143321D+00
EXPONENTS  0.3469723D+02 0.7958262D+01 0.2378083D+01 0.8143321D+00 0.3469723D+02
EXPONENTS  0.7958262D+01 0.2378083D+01 0.8143321D+00 0.2888755D+00 0.2888755D+00
EXPONENTS  0.2888755D+00 0.1005682D+00 0.1005682D+00 0.1005682D+00 0.1097000D+01
EXPONENTS  0.1097000D+01 0.1097000D+01 0.1097000D+01 0.1097000D+01 0.1097000D+01
EXPONENTS  0.3180000D+00 0.3180000D+00 0.3180000D+00 0.3180000D+00 0.3180000D+00
EXPONENTS  0.3180000D+00 0.7610000D+00 0.7610000D+00 0.7610000D+00 0.7610000D+00
EXPONENTS  0.7610000D+00 0.7610000D+00 0.7610000D+00 0.7610000D+00 0.7610000D+00
EXPONENTS  0.7610000D+00 0.1357535D+05 0.2035233D+04 0.4632256D+03 0.1312002D+03
EXPONENTS  0.4285302D+02 0.1558419D+02 0.6206714D+01 0.2576490D+01 0.5769634D+00
EXPONENTS  0.2297283D+00 0.9516444D-01 0.3469723D+02 0.7958262D+01 0.2378083D+01
EXPONENTS  0.8143321D+00 0.3469723D+02 0.7958262D+01 0.2378083D+01 0.8143321D+00
EXPONENTS  0.3469723D+02 0.7958262D+01 0.2378083D+01 0.8143321D+00 0.2888755D+00
EXPONENTS  0.2888755D+00 0.2888755D+00 0.1005682D+00 0.1005682D+00 0.1005682D+00
EXPONENTS  0.1097000D+01 0.1097000D+01 0.1097000D+01 0.1097000D+01 0.1097000D+01
EXPONENTS  0.1097000D+01 0.3180000D+00 0.3180000D+00 0.3180000D+00 0.3180000D+00
EXPONENTS  0.3180000D+00 0.3180000D+00 0.7610000D+00 0.7610000D+00 0.7610000D+00
EXPONENTS  0.7610000D+00 0.7610000D+00 0.7610000D+00 0.7610000D+00 0.7610000D+00
EXPONENTS  0.7610000D+00 0.7610000D+00 0.1357535D+05 0.2035233D+04 0.4632256D+03
EXPONENTS  0.1312002D+03 0.4285302D+02 0.1558419D+02 0.6206714D+01 0.2576490D+01
EXPONENTS  0.5769634D+00 0.2297283D+00 0.9516444D-01 0.3469723D+02 0.7958262D+01
EXPONENTS  0.2378083D+01 0.8143321D+00 0.3469723D+02 0.7958262D+01 0.2378083D+01
EXPONENTS  0.8143321D+00 0.3469723D+02 0.7958262D+01 0.2378083D+01 0.8143321D+00
EXPONENTS  0.2888755D+00 0.2888755D+00 0.2888755D+00 0.1005682D+00 0.1005682D+00
EXPONENTS  0.1005682D+00 0.1097000D+01 0.1097000D+01 0.1097000D+01 0.1097000D+01
EXPONENTS  0.1097000D+01 0.1097000D+01 0.3180000D+00 0.3180000D+00 0.3180000D+00
EXPONENTS  0.3180000D+00 0.3180000D+00 0.3180000D+00 0.7610000D+00 0.7610000D+00
EXPONENTS  0.7610000D+00 0.7610000D+00 0.7610000D+00 0.7610000D+00 0.7610000D+00
EXPONENTS  0.7610000D+00 0.7610000D+00 0.7610000D+00 0.1357535D+05 0.2035233D+04
EXPONENTS  0.4632256D+03 0.1312002D+03 0.4285302D+02 0.1558419D+02 0.6206714D+01
EXPONENTS  0.2576490D+01 0.5769634D+00 0.2297283D+00 0.9516444D-01 0.3469723D+02
EXPONENTS  0.7958262D+01 0.2378083D+01 0.8143321D+00 0.3469723D+02 0.7958262D+01
EXPONENTS  0.2378083D+01 0.8143321D+00 0.3469723D+02 0.7958262D+01 0.2378083D+01
EXPONENTS  0.8143321D+00 0.2888755D+00 0.2888755D+00 0.2888755D+00 0.1005682D+00
EXPONENTS  0.1005682D+00 0.1005682D+00 0.1097000D+01 0.1097000D+01 0.1097000D+01
EXPONENTS  0.1097000D+01 0.1097000D+01 0.1097000D+01 0.3180000D+00 0.3180000D+00
EXPONENTS  0.3180000D+00 0.3180000D+00 0.3180000D+00 0.3180000D+00 0.7610000D+00
EXPONENTS  0.7610000D+00 0.7610000D+00 0.7610000D+00 0.7610000D+00 0.7610000D+00
EXPONENTS  0.7610000D+00 0.7610000D+00 0.7610000D+00 0.7610000D+00 0.1357535D+05
EXPONENTS  0.2035233D+04 0.4632256D+03 0.1312002D+03 0.4285302D+02 0.1558419D+02
EXPONENTS  0.6206714D+01 0.2576490D+01 0.5769634D+00 0.2297283D+00 0.9516444D-01
EXPONENTS  0.3469723D+02 0.7958262D+01 0.2378083D+01 0.8143321D+00 0.3469723D+02
EXPONENTS  0.7958262D+01 0.2378083D+01 0.8143321D+00 0.3469723D+02 0.7958262D+01
EXPONENTS  0.2378083D+01 0.8143321D+00 0.2888755D+00 0.2888755D+00 0.2888755D+00
EXPONENTS  0.1005682D+00 0.1005682D+00 0.1005682D+00 0.1097000D+01 0.1097000D+01
EXPONENTS  0.1097000D+01 0.1097000D+01 0.1097000D+01 0.1097000D+01 0.3180000D+00
EXPONENTS  0.3180000D+00 0.3180000D+00 0.3180000D+00 0.3180000D+00 0.3180000D+00
EXPONENTS  0.7610000D+00 0.7610000D+00 0.7610000D+00 0.7610000D+00 0.7610000D+00
EXPONENTS  0.7610000D+00 0.7610000D+00 0.7610000D+00 0.7610000D+00 0.7610000D+00
EXPONENTS  0.1357535D+05 0.2035233D+04 0.4632256D+03 0.1312002D+03 0.4285302D+02
EXPONENTS  0.1558419D+02 0.6206714D+01 0.2576490D+01 0.5769634D+00 0.2297283D+00
EXPONENTS  0.9516444D-01 0.3469723D+02 0.7958262D+01 0.2378083D+01 0.8143321D+00
EXPONENTS  0.3469723D+02 0.7958262D+01 0.2378083D+01 0.8143321D+00 0.3469723D+02
EXPONENTS  0.7958262D+01 0.2378083D+01 0.8143321D+00 0.2888755D+00 0.2888755D+00
EXPONENTS  0.2888755D+00 0.1005682D+00 0.1005682D+00 0.1005682D+00 0.1097000D+01
EXPONENTS  0.1097000D+01 0.1097000D+01 0.1097000D+01 0.1097000D+01 0.1097000D+01
EXPONENTS  0.3180000D+00 0.3180000D+00 0.3180000D+00 0.3180000D+00 0.3180000D+00
EXPONENTS  0.3180000D+00 0.7610000D+00 0.7610000D+00 0.7610000D+00 0.7610000D+00
EXPONENTS  0.7610000D+00 0.7610000D+00 0.7610000D+00 0.7610000D+00 0.7610000D+00
EXPONENTS  0.7610000D+00 0.1357535D+05 0.2035233D+04 0.4632256D+03 0.1312002D+03
EXPONENTS  0.4285302D+02 0.1558419D+02 0.6206714D+01 0.2576490D+01 0.5769634D+00
EXPONENTS  0.2297283D+00 0.9516444D-01 0.3469723D+02 0.7958262D+01 0.2378083D+01
EXPONENTS  0.8143321D+00 0.3469723D+02 0.7958262D+01 0.2378083D+01 0.8143321D+00
EXPONENTS  0.3469723D+02 0.7958262D+01 0.2378083D+01 0.8143321D+00 0.2888755D+00
EXPONENTS  0.2888755D+00 0.2888755D+00 0.1005682D+00 0.1005682D+00 0.1005682D+00
EXPONENTS  0.1097000D+01 0.1097000D+01 0.1097000D+01 0.1097000D+01 0.1097000D+01
EXPONENTS  0.1097000D+01 0.3180000D+00 0.3180000D+00 0.3180000D+00 0.3180000D+00
EXPONENTS  0.3180000D+00 0.3180000D+00 0.7610000D+00 0.7610000D+00 0.7610000D+00
EXPONENTS  0.7610000D+00 0.7610000D+00 0.7610000D+00 0.7610000D+00 0.7610000D+00
EXPONENTS  0.7610000D+00 0.7610000D+00 0.1357535D+05 0.2035233D+04 0.4632256D+03
EXPONENTS  0.1312002D+03 0.4285302D+02 0.1558419D+02 0.6206714D+01 0.2576490D+01
EXPONENTS  0.5769634D+00 0.2297283D+00 0.9516444D-01 0.3469723D+02 0.7958262D+01
EXPONENTS  0.2378083D+01 0.8143321D+00 0.3469723D+02 0.7958262D+01 0.2378083D+01
EXPONENTS  0.8143321D+00 0.3469723D+02 0.7958262D+01 0.2378083D+01 0.8143321D+00
EXPONENTS  0.2888755D+00 0.2888755D+00 0.2888755D+00 0.1005682D+00 0.1005682D+00
EXPONENTS  0.1005682D+00 0.1097000D+01 0.1097000D+01 0.1097000D+01 0.1097000D+01
EXPONENTS  0.1097000D+01 0.1097000D+01 0.3180000D+00 0.3180000D+00 0.3180000D+00
EXPONENTS  0.3180000D+00 0.3180000D+00 0.3180000D+00 0.7610000D+00 0.7610000D+00
EXPONENTS  0.7610000D+00 0.7610000D+00 0.7610000D+00 0.7610000D+00 0.7610000D+00
EXPONENTS  0.7610000D+00 0.7610000D+00 0.7610000D+00 0.3406134D+02 0.5123575D+01
EXPONENTS  0.1164663D+01 0.3272304D+00 0.1030724D+00 0.8000000D+00 0.8000000D+00
EXPONENTS  0.8000000D+00 0.3406134D+02 0.5123575D+01 0.1164663D+01 0.3272304D+00
EXPONENTS  0.1030724D+00 0.8000000D+00 0.8000000D+00 0.8000000D+00 0.3406134D+02
EXPONENTS  0.5123575D+01 0.1164663D+01 0.3272304D+00 0.1030724D+00 0.8000000D+00
EXPONENTS  0.8000000D+00 0.8000000D+00 0.3406134D+02 0.5123575D+01 0.1164663D+01
EXPONENTS  0.3272304D+00 0.1030724D+00 0.8000000D+00 0.8000000D+00 0.8000000D+00
EXPONENTS  0.3406134D+02 0.5123575D+01 0.1164663D+01 0.3272304D+00 0.1030724D+00
EXPONENTS  0.8000000D+00 0.8000000D+00 0.8000000D+00 0.3406134D+02 0.5123575D+01
EXPONENTS  0.1164663D+01 0.3272304D+00 0.1030724D+00 0.8000000D+00 0.8000000D+00
EXPONENTS  0.8000000D+00 0.3406134D+02 0.5123575D+01 0.1164663D+01 0.3272304D+00
EXPONENTS  0.1030724D+00 0.8000000D+00 0.8000000D+00 0.8000000D+00 0.3406134D+02
EXPONENTS  0.5123575D+01 0.1164663D+01 0.3272304D+00 0.1030724D+00 0.8000000D+00
EXPONENTS  0.8000000D+00 0.8000000D+00 0.3406134D+02 0.5123575D+01 0.1164663D+01
EXPONENTS  0.3272304D+00 0.1030724D+00 0.8000000D+00 0.8000000D+00 0.8000000D+00
EXPONENTS  0.3406134D+02 0.5123575D+01 0.1164663D+01 0.3272304D+00 0.1030724D+00
EXPONENTS  0.8000000D+00 0.8000000D+00 0.8000000D+00 0.3406134D+02 0.5123575D+01
EXPONENTS  0.1164663D+01 0.3272304D+00 0.1030724D+00 0.8000000D+00 0.8000000D+00
EXPONENTS  0.8000000D+00 0.3406134D+02 0.5123575D+01 0.1164663D+01 0.3272304D+00
EXPONENTS  0.1030724D+00 0.8000000D+00 0.8000000D+00 0.8000000D+00 0.3406134D+02
EXPONENTS  0.5123575D+01 0.1164663D+01 0.3272304D+00 0.1030724D+00 0.8000000D+00
EXPONENTS  0.8000000D+00 0.8000000D+00 0.3406134D+02 0.5123575D+01 0.1164663D+01
EXPONENTS  0.3272304D+00 0.1030724D+00 0.8000000D+00 0.8000000D+00 0.8000000D+00
EXPONENTS  0.3406134D+02 0.5123575D+01 0.1164663D+01 0.3272304D+00 0.1030724D+00
EXPONENTS  0.8000000D+00 0.8000000D+00 0.8000000D+00 0.3406134D+02 0.5123575D+01
EXPONENTS  0.1164663D+01 0.3272304D+00 0.1030724D+00 0.8000000D+00 0.8000000D+00
EXPONENTS  0.8000000D+00 0.3406134D+02 0.5123575D+01 0.1164663D+01 0.3272304D+00
EXPONENTS  0.1030724D+00 0.8000000D+00 0.8000000D+00 0.8000000D+00 0.3406134D+02
EXPONENTS  0.5123575D+01 0.1164663D+01 0.3272304D+00 0.1030724D+00 0.8000000D+00
EXPONENTS  0.8000000D+00 0.8000000D+00
MO    1     MO 0.0        OCC NO =    2.0000000  ORB. ENERGY =  -11.213255
  0.17877036D-01  0.33365596D-01  0.56946154D-01  0.88500008D-01  0.11853951D+00
  0.12176575D+00  0.15628252D+00  0.46311036D-01 -0.70405342D-01 -0.44659592D-01
 -0.83929865D-03  0.32468307D+00  0.34655534D+00  0.30349181D+00  0.19165129D+00
 -0.13484647D+00 -0.14393040D+00 -0.12604538D+00 -0.79596084D-01  0.54747757D-09
  0.58435838D-09  0.51174505D-09  0.32316062D-09  0.62742697D-01 -0.25584758D-01
  0.12096330D-09  0.72437219D-02 -0.28624576D-02  0.56314941D-10 -0.25412362D-01
  0.87396223D-02  0.16672740D-01  0.37598037D-01  0.35961418D-09  0.95954617D-10
 -0.40407762D-02  0.13651437D-02  0.26756325D-02  0.68576491D-02  0.92491169D-10
  0.31638171D-10  0.29872953D-02  0.31703132D-02  0.23542345D-10 -0.32922496D-03
 -0.93996109D-02 -0.48186503D-10 -0.86326609D-02 -0.11132885D-03 -0.22440533D-10
  0.74380375D-10 -0.17130902D-02 -0.31973015D-02 -0.54569391D-02 -0.84806282D-02
 -0.11359202D-01 -0.11668361D-01 -0.13713923D-01 -0.40638325D-02  0.42976203D-02
  0.71374965D-02  0.31227396D-03  0.39504275D-02  0.42165479D-02  0.36925928D-02
  0.23318263D-02  0.25633563D-01  0.27360368D-01  0.23960524D-01  0.15130772D-01
 -0.14870761D-08 -0.15872529D-08 -0.13900183D-08 -0.87777920D-09  0.23609360D-02
  0.48592452D-02 -0.27057325D-09 -0.11053842D-02  0.17484819D-02 -0.55114887D-10
 -0.25132657D-02  0.14839417D-03  0.23648715D-02  0.19839660D-01  0.24174468D-09
  0.17474302D-09  0.35594883D-03 -0.19917386D-03 -0.15677498D-03  0.31957984D-02
  0.42149532D-10  0.27323142D-10 -0.11271488D-02  0.52050048D-03 -0.19998910D-11
  0.53089511D-02 -0.10915938D-02 -0.74138843D-11 -0.19275048D-02 -0.46990763D-03
  0.13413557D-10 -0.37077015D-11  0.17897022D-01  0.33402898D-01  0.57009818D-01
  0.88598949D-01  0.11867203D+00  0.12190188D+00  0.15643429D+00  0.46356012D-01
 -0.70450452D-01 -0.44861364D-01  0.20979306D-02 -0.32481184D+00 -0.34669278D+00
 -0.30361217D+00 -0.19172730D+00  0.13443925D+00  0.14349574D+00  0.12566473D+00
  0.79355709D-01 -0.42014202D-08 -0.44844488D-08 -0.39272038D-08 -0.24799803D-08
 -0.62598763D-01  0.25357526D-01 -0.77774003D-09 -0.67336638D-02  0.29546081D-02
 -0.10931931D-09 -0.25482200D-01  0.87793233D-02  0.16702876D-01  0.37587789D-01
  0.63183416D-09  0.38503616D-09 -0.39482628D-02  0.13283855D-02  0.26198773D-02
  0.67696074D-02  0.84410181D-10  0.50447470D-10 -0.29841193D-02 -0.31814451D-02
 -0.30926777D-11  0.34368003D-03  0.93935217D-02  0.42995245D-11  0.86086777D-02
  0.15081359D-03  0.49785087D-11 -0.35410544D-10  0.15784666D-02  0.29460409D-02
  0.50281044D-02  0.78141762D-02  0.10466537D-01  0.10751400D-01  0.12608797D-01
  0.37363518D-02 -0.47091823D-02 -0.62932595D-02 -0.92707535D-03  0.14444702D-01
  0.15417769D-01  0.13501932D-01  0.85263017D-02 -0.93886330D-02 -0.10021098D-01
 -0.87758600D-02 -0.55418462D-02  0.76421384D-10  0.81569509D-10  0.71433548D-10
  0.45109395D-10  0.51421461D-02 -0.34824610D-02  0.10863149D-10  0.10366025D-02
 -0.17930908D-02  0.23498405D-10 -0.18542657D-02  0.26411884D-02 -0.78692271D-03
 -0.18121048D-02  0.99117464D-10 -0.15548679D-11 -0.93465672D-03  0.98025758D-03
 -0.45600868D-04  0.16513728D-03  0.24820686D-10 -0.15303047D-11  0.67176958D-03
  0.15752717D-03  0.52803964D-11 -0.10500316D-02 -0.21282987D-03 -0.20863830D-10
 -0.96527709D-03 -0.25975165D-03  0.50226414D-11  0.20881336D-10 -0.17150801D-02
 -0.32010156D-02 -0.54632780D-02 -0.84904794D-02 -0.11372397D-01 -0.11681915D-01
 -0.13737293D-01 -0.40707579D-02  0.43904479D-02  0.70127986D-02 -0.11427305D-02
 -0.38176386D-02 -0.40748137D-02 -0.35684707D-02 -0.22534447D-02 -0.25617983D-01
 -0.27343737D-01 -0.23945960D-01 -0.15121575D-01  0.66144763D-11  0.70600603D-11
  0.61827657D-11  0.39043395D-11 -0.21387115D-02 -0.51748521D-02  0.11392386D-10
  0.11509203D-02 -0.12273432D-02  0.28903782D-10 -0.26444841D-02  0.33188047D-03
  0.23126037D-02  0.19787209D-01  0.63501115D-10  0.25694620D-09  0.30989614D-03
 -0.20407718D-03 -0.10581895D-03  0.33488101D-02  0.26906731D-10  0.62293695D-10
  0.11074117D-02 -0.52429839D-03  0.16096894D-10 -0.51994445D-02  0.10440522D-02
  0.22194510D-10  0.18772095D-02  0.52884300D-03 -0.70485191D-10 -0.60373330D-11
 -0.52538326D-03 -0.98057227D-03 -0.16735748D-02 -0.26009023D-02 -0.34837248D-02
 -0.35785399D-02 -0.41175133D-02 -0.12201384D-02  0.15995514D-02  0.13147806D-02
 -0.82136145D-03  0.39309310D-03  0.41957380D-03  0.36743688D-03  0.23203181D-03
  0.81796944D-02  0.87307193D-02  0.76458259D-02  0.48282437D-02  0.34722024D-10
  0.37061072D-10  0.32455803D-10  0.20495435D-10  0.32068293D-03  0.12323074D-02
  0.90800821D-11 -0.37347238D-03  0.33464910D-03 -0.76290073D-11 -0.27891433D-03
 -0.25663467D-04  0.30457779D-03  0.20155222D-02  0.36765446D-11  0.40963661D-11
  0.17069153D-03 -0.18387859D-03  0.13187062D-04  0.28092603D-04  0.10439537D-11
 -0.20974969D-11 -0.43597539D-04 -0.24603199D-04  0.74755583D-12  0.31924051D-03
  0.11578357D-03 -0.16038444D-11 -0.18844789D-03 -0.41973972D-04 -0.63882304D-12
  0.56644663D-11  0.15938314D-02  0.29747177D-02  0.50770480D-02  0.78902395D-02
  0.10568418D-01  0.10856055D-01  0.12743148D-01  0.37761639D-02 -0.49037256D-02
 -0.59829199D-02 -0.20089083D-02 -0.14311957D-01 -0.15276082D-01 -0.13377851D-01
 -0.84479460D-02  0.92015266D-02  0.98213871D-02  0.86009655D-02  0.54314025D-02
  0.95312001D-10  0.10173269D-09  0.89091220D-10  0.56259995D-10 -0.48799815D-02
  0.31967035D-02  0.25269159D-10 -0.67641588D-03  0.13252256D-02 -0.36198857D-11
 -0.19554895D-02  0.27221304D-02 -0.76664087D-03 -0.19653819D-02  0.17431557D-11
  0.83855220D-11 -0.71120121D-03  0.79396923D-03 -0.82768016D-04  0.18749413D-03
 -0.13758914D-11  0.70636425D-11 -0.63719157D-03 -0.16715128D-03  0.20662656D-11
  0.10457500D-02  0.24516645D-03  0.39948994D-11  0.86582476D-03  0.25628739D-03
 -0.10193696D-10  0.53992748D-11  0.19470946D-03  0.36340461D-03  0.62023454D-03
  0.96390639D-03  0.12910845D-02  0.13262234D-02  0.15406106D-02  0.45652754D-03
 -0.59617439D-03 -0.75139178D-03 -0.57001353D-04  0.23453831D-02  0.25033798D-02
  0.21923057D-02  0.13844137D-02 -0.11276029D-02 -0.12035638D-02 -0.10540070D-02
 -0.66559228D-03 -0.61486381D-11 -0.65628409D-11 -0.57473316D-11 -0.36293683D-11
  0.89193136D-03 -0.35590291D-03 -0.36218233D-11  0.68818564D-04 -0.27408496D-03
  0.19659944D-11 -0.34464695D-03  0.49922219D-03 -0.15457524D-03 -0.53786579D-03
 -0.35125553D-11  0.20114162D-11 -0.13269446D-03  0.10549578D-03  0.27198675D-04
 -0.27900640D-04 -0.30255893D-11 -0.57714683D-12  0.87456130D-04 -0.78836324D-05
 -0.41173333D-12 -0.20320185D-03  0.28247768D-04  0.19388981D-12 -0.59166541D-04
 -0.45968710D-05  0.10413102D-11 -0.33060278D-11  0.25119039D-02  0.45334752D-02
  0.66929245D-02  0.76289351D-02  0.30717816D-02  0.70379604D-02 -0.41609254D-02
 -0.19041832D-02  0.25119037D-02  0.45334749D-02  0.66929240D-02  0.76289348D-02
  0.30717815D-02  0.70379604D-02 -0.41609254D-02  0.19041832D-02  0.10768418D-02
  0.19434802D-02  0.28692262D-02  0.20773344D-02  0.13768837D-02  0.24772725D-03
  0.18036772D-03  0.26383770D-03  0.10768420D-02  0.19434807D-02  0.28692270D-02
  0.20773350D-02  0.13768838D-02  0.24772735D-03  0.18036780D-03 -0.26383761D-03
  0.25233277D-02  0.45540928D-02  0.67233630D-02  0.76537571D-02  0.29152831D-02
 -0.70150083D-02  0.41477235D-02  0.19274450D-02  0.25233269D-02  0.45540915D-02
  0.67233610D-02  0.76537556D-02  0.29152828D-02 -0.70150086D-02  0.41477233D-02
 -0.19274448D-02 -0.49393069D-03 -0.89144436D-03 -0.13160698D-02 -0.91215172D-03
 -0.15027014D-03  0.41870066D-03  0.15547841D-03 -0.17189296D-03 -0.49393066D-03
 -0.89144429D-03 -0.13160697D-02 -0.91215166D-03 -0.15027013D-03  0.41870066D-03
  0.15547841D-03  0.17189295D-03  0.10676422D-02  0.19268769D-02  0.28447143D-02
  0.20626902D-02  0.13479070D-02 -0.27183761D-03 -0.18071528D-03  0.26662103D-03
  0.10676422D-02  0.19268768D-02  0.28447141D-02  0.20626901D-02  0.13479070D-02
 -0.27183761D-03 -0.18071530D-03 -0.26662102D-03  0.84953981D-04  0.15332464D-03
  0.22635841D-03  0.22161955D-03  0.12221415D-04  0.80131281D-04  0.20777152D-03
 -0.33069555D-05  0.84953980D-04  0.15332464D-03  0.22635841D-03  0.22161955D-03
  0.12221402D-04  0.80131276D-04  0.20777153D-03  0.33069572D-05  0.84591615D-03
  0.15267065D-02  0.22539290D-02  0.18532610D-02  0.11692217D-02 -0.62000598D-03
  0.39086018D-03  0.42630432D-11 -0.49882000D-03 -0.90026857D-03 -0.13290973D-02
 -0.83240067D-03  0.12221035D-03 -0.44308026D-03  0.34673336D-05 -0.20973384D-03
 -0.49882000D-03 -0.90026855D-03 -0.13290973D-02 -0.83240066D-03  0.12221036D-03
 -0.44308026D-03  0.34673488D-05  0.20973385D-03  0.17502899D-03  0.31589170D-03
  0.46636171D-03  0.40509464D-03  0.22338912D-03  0.12949627D-03 -0.38984050D-04
 -0.93476206D-12 -0.72632864D-04 -0.13108753D-03 -0.19352901D-03 -0.21957633D-03
  0.77449762D-05  0.96878246D-04 -0.19666148D-05 -0.54975339D-04 -0.72632865D-04
 -0.13108754D-03 -0.19352901D-03 -0.21957633D-03  0.77449695D-05  0.96878244D-04
 -0.19666138D-05  0.54975336D-04
MO    2     MO 0.0        OCC NO =    2.0000000  ORB. ENERGY =  -11.213255
 -0.65370020D-04 -0.12200623D-03 -0.20823202D-03 -0.32361334D-03 -0.43345720D-03
 -0.44525443D-03 -0.48569306D-03 -0.14392492D-03  0.11900155D-03  0.22031566D-03
  0.10850079D-03 -0.48974333D-03 -0.52273488D-03 -0.45777899D-03 -0.28908172D-03
  0.54262458D-03  0.57917847D-03  0.50720881D-03  0.32029604D-03 -0.27137905D-11
 -0.28966049D-11 -0.25366680D-11 -0.16018742D-11  0.87046324D-04 -0.17482203D-03
  0.79173439D-12 -0.20126353D-04 -0.26220951D-04 -0.14441909D-11  0.18801273D-03
 -0.31690176D-03  0.12888903D-03  0.31957221D-03  0.13611073D-11 -0.12708066D-11
 -0.57158678D-04  0.95332628D-04 -0.38173950D-04  0.45544722D-04  0.56580927D-12
  0.64252459D-12 -0.33945982D-04 -0.40814613D-04  0.13827238D-12  0.89236376D-04
  0.34043044D-04 -0.12946644D-12  0.12601569D-04  0.88400796D-04 -0.28535069D-12
  0.79284268D-12  0.39167372D-04  0.73101756D-04  0.12476516D-03  0.19389751D-03
  0.25971201D-03  0.26678049D-03  0.32213123D-03  0.95456814D-04 -0.75607680D-04
 -0.31461742D-03 -0.86854067D-04  0.97733829D-04  0.10431767D-03  0.91354982D-04
  0.57689532D-04 -0.48473995D-03 -0.51739445D-03 -0.45310217D-03 -0.28612837D-03
 -0.11762770D-11 -0.12555169D-11 -0.10995043D-11 -0.69432325D-12  0.88747294D-05
 -0.37866038D-03 -0.21736594D-12  0.62845628D-04 -0.94877815D-04  0.66460545D-12
  0.44446005D-04 -0.60277058D-04  0.15831053D-04 -0.21656289D-04 -0.26666194D-13
 -0.36955121D-12  0.47531069D-04 -0.76296797D-04  0.28765727D-04 -0.75378173D-04
  0.18572669D-12  0.35484459D-12  0.15111226D-04 -0.34038440D-04 -0.68474834D-13
 -0.52378833D-04  0.38941217D-04 -0.10787034D-12  0.70451558D-05  0.63174102D-04
  0.31329484D-12 -0.18561896D-12  0.40450663D-03  0.75496883D-03  0.12885300D-02
  0.20025043D-02  0.26822129D-02  0.27552137D-02  0.33814378D-02  0.10020180D-02
 -0.13112074D-02 -0.74094382D-03 -0.45309962D-03 -0.21747342D-03 -0.23212351D-03
 -0.20327947D-03 -0.12836845D-03 -0.73249117D-02 -0.78183542D-02 -0.68468327D-02
 -0.43236895D-02 -0.17332554D-10 -0.18500161D-10 -0.16201300D-10 -0.10230919D-10
  0.54282214D-04 -0.17424387D-02 -0.38461588D-11  0.97966934D-06 -0.28431669D-03
  0.11986432D-11  0.50986963D-03 -0.10732912D-02  0.56342158D-03  0.51261679D-04
  0.52381397D-13  0.14992409D-11  0.22210103D-03 -0.34799990D-03  0.12589887D-03
 -0.12520035D-03 -0.13857301D-11 -0.20138046D-12  0.25543441D-04 -0.28079840D-03
 -0.14987260D-12 -0.24294166D-04  0.39954306D-03  0.50945491D-12 -0.52336157D-04
  0.44285214D-03 -0.59837093D-13 -0.63362844D-12 -0.99960506D-05 -0.18656571D-04
 -0.31841780D-04 -0.49485305D-04 -0.66282068D-04 -0.68086040D-04 -0.77690354D-04
 -0.23021902D-04  0.37632917D-04 -0.11028378D-04 -0.10435656D-03 -0.16187172D-03
 -0.17277620D-03 -0.15130675D-03 -0.95548325D-04  0.56237833D-04  0.60026293D-04
  0.52567327D-04  0.33195612D-04 -0.38837754D-14 -0.41454058D-14 -0.36302909D-14
 -0.22924834D-14  0.35920815D-05  0.23845530D-04 -0.40567992D-12  0.19393577D-04
  0.96242619D-06 -0.35583235D-12  0.20445967D-04 -0.24424808D-04  0.39788402D-05
  0.39203121D-04 -0.86019419D-12 -0.30751098D-11 -0.10904020D-04  0.58043923D-05
  0.50996273D-05 -0.17489410D-05 -0.36308130D-12 -0.88420638D-12  0.20460526D-05
  0.52687677D-05 -0.20775643D-12 -0.96475414D-05 -0.11065528D-04 -0.26152811D-12
  0.35093836D-05 -0.47407751D-05  0.88479740D-12  0.10574170D-13  0.25651583D+00
  0.47875966D+00  0.81711477D+00  0.12698779D+01  0.17009117D+01  0.17472048D+01
  0.11449448D+01  0.33928030D+00  0.12732836D-02 -0.63459314D-02  0.14860997D-02
 -0.12269597D-02 -0.13096138D-02 -0.11468791D-02 -0.72423985D-03 -0.47320520D-03
 -0.50508265D-03 -0.44232025D-03 -0.27931973D-03  0.15301518D-10  0.16332305D-10
  0.14302826D-10  0.90320562D-11  0.33765913D-04 -0.26492165D-03  0.39456055D-12
 -0.52197407D-04 -0.88678712D-04 -0.32492357D-11  0.18034678D-04 -0.28042906D-04
  0.10008228D-04  0.50557606D-04 -0.33257592D-10  0.92039380D-11 -0.93069558D-04
  0.34330369D-04  0.58739189D-04  0.64133505D-04 -0.96319269D-11  0.14509872D-12
 -0.84119501D-04 -0.10250336D-03 -0.24134066D-11 -0.77916735D-04  0.15908346D-04
  0.79297838D-11  0.33027524D-03  0.29160174D-03 -0.68956411D-12 -0.98985742D-11
  0.46169932D-05  0.86171294D-05  0.14707137D-04  0.22856359D-04  0.30614477D-04
  0.31447699D-04  0.36442453D-04  0.10798954D-04 -0.22370159D-04 -0.37209088D-05
  0.34574942D-04  0.13028870D-04  0.13906559D-04  0.12178508D-04  0.76905757D-05
 -0.69980577D-04 -0.74694816D-04 -0.65413117D-04 -0.41307568D-04  0.51723732D-10
  0.55208100D-10  0.48347851D-10  0.30531065D-10 -0.10937847D-04 -0.50959199D-05
  0.95368522D-11  0.19746419D-04 -0.88744333D-05  0.11374524D-11  0.41771260D-05
 -0.22466158D-05 -0.19305102D-05 -0.13800607D-04 -0.72266049D-11 -0.48133321D-11
 -0.14936477D-05  0.31482842D-05 -0.16546366D-05 -0.10355462D-04 -0.83383996D-12
 -0.55041562D-12  0.32375074D-05  0.29058459D-05  0.19828783D-13 -0.83541204D-05
 -0.30875996D-05  0.58873330D-13 -0.13584018D-05 -0.56299382D-05 -0.11835968D-12
  0.28715933D-12  0.40377096D-03  0.75359578D-03  0.12861866D-02  0.19988623D-02
  0.26773348D-02  0.27502028D-02  0.33622411D-02  0.99632944D-03 -0.13702623D-02
 -0.53062832D-03 -0.35867994D-03 -0.67089230D-02 -0.71608694D-02 -0.62710481D-02
 -0.39600887D-02  0.29108124D-02  0.31068992D-02  0.27208308D-02  0.17181708D-02
  0.59104597D-09  0.63086176D-09  0.55246985D-09  0.34887782D-09 -0.12642279D-02