 C8H18 - base Def2TZVP (allE) - geom opt same basis - Orb
GAUSSIAN             33 MOL ORBITALS    552 PRIMITIVES       26 NUCLEI
  C    1    (CENTRE  1)   0.00536385  1.44487465 -0.00000000  CHARGE =  6.0
  C    2    (CENTRE  2)  -0.00536385 -1.44487465 -0.00000000  CHARGE =  6.0
  C    3    (CENTRE  3)  -2.63790576  2.61086078 -0.00000000  CHARGE =  6.0
  C    4    (CENTRE  4)   2.63790576 -2.61086078 -0.00000000  CHARGE =  6.0
  C    5    (CENTRE  5)  -2.63790576  5.50025204 -0.00000000  CHARGE =  6.0
  C    6    (CENTRE  6)   2.63790576 -5.50025204 -0.00000000  CHARGE =  6.0
  C    7    (CENTRE  7)  -5.28793845  6.64364800 -0.00000000  CHARGE =  6.0
  C    8    (CENTRE  8)   5.28793845 -6.64364800 -0.00000000  CHARGE =  6.0
  H    9    (CENTRE  9)   1.05147791  2.12384322  1.65403537  CHARGE =  1.0
  H   10    (CENTRE 10)   1.05147791  2.12384322 -1.65403537  CHARGE =  1.0
  H   11    (CENTRE 11)  -1.05147791 -2.12384322  1.65403537  CHARGE =  1.0
  H   12    (CENTRE 12)  -1.05147791 -2.12384322 -1.65403537  CHARGE =  1.0
  H   13    (CENTRE 13)  -3.68476996  1.93129661 -1.65378953  CHARGE =  1.0
  H   14    (CENTRE 14)  -3.68476996  1.93129661  1.65378953  CHARGE =  1.0
  H   15    (CENTRE 15)   3.68476996 -1.93129661 -1.65378953  CHARGE =  1.0
  H   16    (CENTRE 16)   3.68476996 -1.93129661  1.65378953  CHARGE =  1.0
  H   17    (CENTRE 17)  -1.59388000  6.18022318  1.65305001  CHARGE =  1.0
  H   18    (CENTRE 18)  -1.59388000  6.18022318 -1.65305001  CHARGE =  1.0
  H   19    (CENTRE 19)   1.59388000 -6.18022318  1.65305001  CHARGE =  1.0
  H   20    (CENTRE 20)   1.59388000 -6.18022318 -1.65305001  CHARGE =  1.0
  H   21    (CENTRE 21)  -5.22133541  8.70634291 -0.00000000  CHARGE =  1.0
  H   22    (CENTRE 22)  -6.35663849  6.05155446 -1.66560956  CHARGE =  1.0
  H   23    (CENTRE 23)  -6.35663849  6.05155446  1.66560956  CHARGE =  1.0
  H   24    (CENTRE 24)   5.22133541 -8.70634291 -0.00000000  CHARGE =  1.0
  H   25    (CENTRE 25)   6.35663849 -6.05155446 -1.66560956  CHARGE =  1.0
  H   26    (CENTRE 26)   6.35663849 -6.05155446  1.66560956  CHARGE =  1.0
CENTRE ASSIGNMENTS    1  1  1  1  1  1  1  1  1  1  1  1  1  1  1  1  1  1  1  1
CENTRE ASSIGNMENTS    1  1  1  1  1  1  1  1  1  1  1  1  1  1  1  1  1  1  1  1
CENTRE ASSIGNMENTS    1  1  1  1  1  1  1  1  1  1  1  2  2  2  2  2  2  2  2  2
CENTRE ASSIGNMENTS    2  2  2  2  2  2  2  2  2  2  2  2  2  2  2  2  2  2  2  2
CENTRE ASSIGNMENTS    2  2  2  2  2  2  2  2  2  2  2  2  2  2  2  2  2  2  2  2
CENTRE ASSIGNMENTS    2  2  3  3  3  3  3  3  3  3  3  3  3  3  3  3  3  3  3  3
CENTRE ASSIGNMENTS    3  3  3  3  3  3  3  3  3  3  3  3  3  3  3  3  3  3  3  3
CENTRE ASSIGNMENTS    3  3  3  3  3  3  3  3  3  3  3  3  3  4  4  4  4  4  4  4
CENTRE ASSIGNMENTS    4  4  4  4  4  4  4  4  4  4  4  4  4  4  4  4  4  4  4  4
CENTRE ASSIGNMENTS    4  4  4  4  4  4  4  4  4  4  4  4  4  4  4  4  4  4  4  4
CENTRE ASSIGNMENTS    4  4  4  4  5  5  5  5  5  5  5  5  5  5  5  5  5  5  5  5
CENTRE ASSIGNMENTS    5  5  5  5  5  5  5  5  5  5  5  5  5  5  5  5  5  5  5  5
CENTRE ASSIGNMENTS    5  5  5  5  5  5  5  5  5  5  5  5  5  5  5  6  6  6  6  6
CENTRE ASSIGNMENTS    6  6  6  6  6  6  6  6  6  6  6  6  6  6  6  6  6  6  6  6
CENTRE ASSIGNMENTS    6  6  6  6  6  6  6  6  6  6  6  6  6  6  6  6  6  6  6  6
CENTRE ASSIGNMENTS    6  6  6  6  6  6  7  7  7  7  7  7  7  7  7  7  7  7  7  7
CENTRE ASSIGNMENTS    7  7  7  7  7  7  7  7  7  7  7  7  7  7  7  7  7  7  7  7
CENTRE ASSIGNMENTS    7  7  7  7  7  7  7  7  7  7  7  7  7  7  7  7  7  8  8  8
CENTRE ASSIGNMENTS    8  8  8  8  8  8  8  8  8  8  8  8  8  8  8  8  8  8  8  8
CENTRE ASSIGNMENTS    8  8  8  8  8  8  8  8  8  8  8  8  8  8  8  8  8  8  8  8
CENTRE ASSIGNMENTS    8  8  8  8  8  8  8  8  9  9  9  9  9  9  9  9 10 10 10 10
CENTRE ASSIGNMENTS   10 10 10 10 11 11 11 11 11 11 11 11 12 12 12 12 12 12 12 12
CENTRE ASSIGNMENTS   13 13 13 13 13 13 13 13 14 14 14 14 14 14 14 14 15 15 15 15
CENTRE ASSIGNMENTS   15 15 15 15 16 16 16 16 16 16 16 16 17 17 17 17 17 17 17 17
CENTRE ASSIGNMENTS   18 18 18 18 18 18 18 18 19 19 19 19 19 19 19 19 20 20 20 20
CENTRE ASSIGNMENTS   20 20 20 20 21 21 21 21 21 21 21 21 22 22 22 22 22 22 22 22
CENTRE ASSIGNMENTS   23 23 23 23 23 23 23 23 24 24 24 24 24 24 24 24 25 25 25 25
CENTRE ASSIGNMENTS   25 25 25 25 26 26 26 26 26 26 26 26
TYPE ASSIGNMENTS      1  1  1  1  1  1  1  1  1  1  1  2  2  2  2  3  3  3  3  4
TYPE ASSIGNMENTS      4  4  4  2  3  4  2  3  4  5  6  7  8  9 10  5  6  7  8  9
TYPE ASSIGNMENTS     10 11 12 13 17 14 15 18 19 16 20  1  1  1  1  1  1  1  1  1
TYPE ASSIGNMENTS      1  1  2  2  2  2  3  3  3  3  4  4  4  4  2  3  4  2  3  4
TYPE ASSIGNMENTS      5  6  7  8  9 10  5  6  7  8  9 10 11 12 13 17 14 15 18 19
TYPE ASSIGNMENTS     16 20  1  1  1  1  1  1  1  1  1  1  1  2  2  2  2  3  3  3
TYPE ASSIGNMENTS      3  4  4  4  4  2  3  4  2  3  4  5  6  7  8  9 10  5  6  7
TYPE ASSIGNMENTS      8  9 10 11 12 13 17 14 15 18 19 16 20  1  1  1  1  1  1  1
TYPE ASSIGNMENTS      1  1  1  1  2  2  2  2  3  3  3  3  4  4  4  4  2  3  4  2
TYPE ASSIGNMENTS      3  4  5  6  7  8  9 10  5  6  7  8  9 10 11 12 13 17 14 15
TYPE ASSIGNMENTS     18 19 16 20  1  1  1  1  1  1  1  1  1  1  1  2  2  2  2  3
TYPE ASSIGNMENTS      3  3  3  4  4  4  4  2  3  4  2  3  4  5  6  7  8  9 10  5
TYPE ASSIGNMENTS      6  7  8  9 10 11 12 13 17 14 15 18 19 16 20  1  1  1  1  1
TYPE ASSIGNMENTS      1  1  1  1  1  1  2  2  2  2  3  3  3  3  4  4  4  4  2  3
TYPE ASSIGNMENTS      4  2  3  4  5  6  7  8  9 10  5  6  7  8  9 10 11 12 13 17
TYPE ASSIGNMENTS     14 15 18 19 16 20  1  1  1  1  1  1  1  1  1  1  1  2  2  2
TYPE ASSIGNMENTS      2  3  3  3  3  4  4  4  4  2  3  4  2  3  4  5  6  7  8  9
TYPE ASSIGNMENTS     10  5  6  7  8  9 10 11 12 13 17 14 15 18 19 16 20  1  1  1
TYPE ASSIGNMENTS      1  1  1  1  1  1  1  1  2  2  2  2  3  3  3  3  4  4  4  4
TYPE ASSIGNMENTS      2  3  4  2  3  4  5  6  7  8  9 10  5  6  7  8  9 10 11 12
TYPE ASSIGNMENTS     13 17 14 15 18 19 16 20  1  1  1  1  1  2  3  4  1  1  1  1
TYPE ASSIGNMENTS      1  2  3  4  1  1  1  1  1  2  3  4  1  1  1  1  1  2  3  4
TYPE ASSIGNMENTS      1  1  1  1  1  2  3  4  1  1  1  1  1  2  3  4  1  1  1  1
TYPE ASSIGNMENTS      1  2  3  4  1  1  1  1  1  2  3  4  1  1  1  1  1  2  3  4
TYPE ASSIGNMENTS      1  1  1  1  1  2  3  4  1  1  1  1  1  2  3  4  1  1  1  1
TYPE ASSIGNMENTS      1  2  3  4  1  1  1  1  1  2  3  4  1  1  1  1  1  2  3  4
TYPE ASSIGNMENTS      1  1  1  1  1  2  3  4  1  1  1  1  1  2  3  4  1  1  1  1
TYPE ASSIGNMENTS      1  2  3  4  1  1  1  1  1  2  3  4
EXPONENTS  0.1357535D+05 0.2035233D+04 0.4632256D+03 0.1312002D+03 0.4285302D+02
EXPONENTS  0.1558419D+02 0.6206714D+01 0.2576490D+01 0.5769634D+00 0.2297283D+00
EXPONENTS  0.9516444D-01 0.3469723D+02 0.7958262D+01 0.2378083D+01 0.8143321D+00
EXPONENTS  0.3469723D+02 0.7958262D+01 0.2378083D+01 0.8143321D+00 0.3469723D+02
EXPONENTS  0.7958262D+01 0.2378083D+01 0.8143321D+00 0.2888755D+00 0.2888755D+00
EXPONENTS  0.2888755D+00 0.1005682D+00 0.1005682D+00 0.1005682D+00 0.1097000D+01
EXPONENTS  0.1097000D+01 0.1097000D+01 0.1097000D+01 0.1097000D+01 0.1097000D+01
EXPONENTS  0.3180000D+00 0.3180000D+00 0.3180000D+00 0.3180000D+00 0.3180000D+00
EXPONENTS  0.3180000D+00 0.7610000D+00 0.7610000D+00 0.7610000D+00 0.7610000D+00
EXPONENTS  0.7610000D+00 0.7610000D+00 0.7610000D+00 0.7610000D+00 0.7610000D+00
EXPONENTS  0.7610000D+00 0.1357535D+05 0.2035233D+04 0.4632256D+03 0.1312002D+03
EXPONENTS  0.4285302D+02 0.1558419D+02 0.6206714D+01 0.2576490D+01 0.5769634D+00
EXPONENTS  0.2297283D+00 0.9516444D-01 0.3469723D+02 0.7958262D+01 0.2378083D+01
EXPONENTS  0.8143321D+00 0.3469723D+02 0.7958262D+01 0.2378083D+01 0.8143321D+00
EXPONENTS  0.3469723D+02 0.7958262D+01 0.2378083D+01 0.8143321D+00 0.2888755D+00
EXPONENTS  0.2888755D+00 0.2888755D+00 0.1005682D+00 0.1005682D+00 0.1005682D+00
EXPONENTS  0.1097000D+01 0.1097000D+01 0.1097000D+01 0.1097000D+01 0.1097000D+01
EXPONENTS  0.1097000D+01 0.3180000D+00 0.3180000D+00 0.3180000D+00 0.3180000D+00
EXPONENTS  0.3180000D+00 0.3180000D+00 0.7610000D+00 0.7610000D+00 0.7610000D+00
EXPONENTS  0.7610000D+00 0.7610000D+00 0.7610000D+00 0.7610000D+00 0.7610000D+00
EXPONENTS  0.7610000D+00 0.7610000D+00 0.1357535D+05 0.2035233D+04 0.4632256D+03
EXPONENTS  0.1312002D+03 0.4285302D+02 0.1558419D+02 0.6206714D+01 0.2576490D+01
EXPONENTS  0.5769634D+00 0.2297283D+00 0.9516444D-01 0.3469723D+02 0.7958262D+01
EXPONENTS  0.2378083D+01 0.8143321D+00 0.3469723D+02 0.7958262D+01 0.2378083D+01
EXPONENTS  0.8143321D+00 0.3469723D+02 0.7958262D+01 0.2378083D+01 0.8143321D+00
EXPONENTS  0.2888755D+00 0.2888755D+00 0.2888755D+00 0.1005682D+00 0.1005682D+00
EXPONENTS  0.1005682D+00 0.1097000D+01 0.1097000D+01 0.1097000D+01 0.1097000D+01
EXPONENTS  0.1097000D+01 0.1097000D+01 0.3180000D+00 0.3180000D+00 0.3180000D+00
EXPONENTS  0.3180000D+00 0.3180000D+00 0.3180000D+00 0.7610000D+00 0.7610000D+00
EXPONENTS  0.7610000D+00 0.7610000D+00 0.7610000D+00 0.7610000D+00 0.7610000D+00
EXPONENTS  0.7610000D+00 0.7610000D+00 0.7610000D+00 0.1357535D+05 0.2035233D+04
EXPONENTS  0.4632256D+03 0.1312002D+03 0.4285302D+02 0.1558419D+02 0.6206714D+01
EXPONENTS  0.2576490D+01 0.5769634D+00 0.2297283D+00 0.9516444D-01 0.3469723D+02
EXPONENTS  0.7958262D+01 0.2378083D+01 0.8143321D+00 0.3469723D+02 0.7958262D+01
EXPONENTS  0.2378083D+01 0.8143321D+00 0.3469723D+02 0.7958262D+01 0.2378083D+01
EXPONENTS  0.8143321D+00 0.2888755D+00 0.2888755D+00 0.2888755D+00 0.1005682D+00
EXPONENTS  0.1005682D+00 0.1005682D+00 0.1097000D+01 0.1097000D+01 0.1097000D+01
EXPONENTS  0.1097000D+01 0.1097000D+01 0.1097000D+01 0.3180000D+00 0.3180000D+00
EXPONENTS  0.3180000D+00 0.3180000D+00 0.3180000D+00 0.3180000D+00 0.7610000D+00
EXPONENTS  0.7610000D+00 0.7610000D+00 0.7610000D+00 0.7610000D+00 0.7610000D+00
EXPONENTS  0.7610000D+00 0.7610000D+00 0.7610000D+00 0.7610000D+00 0.1357535D+05
EXPONENTS  0.2035233D+04 0.4632256D+03 0.1312002D+03 0.4285302D+02 0.1558419D+02
EXPONENTS  0.6206714D+01 0.2576490D+01 0.5769634D+00 0.2297283D+00 0.9516444D-01
EXPONENTS  0.3469723D+02 0.7958262D+01 0.2378083D+01 0.8143321D+00 0.3469723D+02
EXPONENTS  0.7958262D+01 0.2378083D+01 0.8143321D+00 0.3469723D+02 0.7958262D+01
EXPONENTS  0.2378083D+01 0.8143321D+00 0.2888755D+00 0.2888755D+00 0.2888755D+00
EXPONENTS  0.1005682D+00 0.1005682D+00 0.1005682D+00 0.1097000D+01 0.1097000D+01
EXPONENTS  0.1097000D+01 0.1097000D+01 0.1097000D+01 0.1097000D+01 0.3180000D+00
EXPONENTS  0.3180000D+00 0.3180000D+00 0.3180000D+00 0.3180000D+00 0.3180000D+00
EXPONENTS  0.7610000D+00 0.7610000D+00 0.7610000D+00 0.7610000D+00 0.7610000D+00
EXPONENTS  0.7610000D+00 0.7610000D+00 0.7610000D+00 0.7610000D+00 0.7610000D+00
EXPONENTS  0.1357535D+05 0.2035233D+04 0.4632256D+03 0.1312002D+03 0.4285302D+02
EXPONENTS  0.1558419D+02 0.6206714D+01 0.2576490D+01 0.5769634D+00 0.2297283D+00
EXPONENTS  0.9516444D-01 0.3469723D+02 0.7958262D+01 0.2378083D+01 0.8143321D+00
EXPONENTS  0.3469723D+02 0.7958262D+01 0.2378083D+01 0.8143321D+00 0.3469723D+02
EXPONENTS  0.7958262D+01 0.2378083D+01 0.8143321D+00 0.2888755D+00 0.2888755D+00
EXPONENTS  0.2888755D+00 0.1005682D+00 0.1005682D+00 0.1005682D+00 0.1097000D+01
EXPONENTS  0.1097000D+01 0.1097000D+01 0.1097000D+01 0.1097000D+01 0.1097000D+01
EXPONENTS  0.3180000D+00 0.3180000D+00 0.3180000D+00 0.3180000D+00 0.3180000D+00
EXPONENTS  0.3180000D+00 0.7610000D+00 0.7610000D+00 0.7610000D+00 0.7610000D+00
EXPONENTS  0.7610000D+00 0.7610000D+00 0.7610000D+00 0.7610000D+00 0.7610000D+00
EXPONENTS  0.7610000D+00 0.1357535D+05 0.2035233D+04 0.4632256D+03 0.1312002D+03
EXPONENTS  0.4285302D+02 0.1558419D+02 0.6206714D+01 0.2576490D+01 0.5769634D+00
EXPONENTS  0.2297283D+00 0.9516444D-01 0.3469723D+02 0.7958262D+01 0.2378083D+01
EXPONENTS  0.8143321D+00 0.3469723D+02 0.7958262D+01 0.2378083D+01 0.8143321D+00
EXPONENTS  0.3469723D+02 0.7958262D+01 0.2378083D+01 0.8143321D+00 0.2888755D+00
EXPONENTS  0.2888755D+00 0.2888755D+00 0.1005682D+00 0.1005682D+00 0.1005682D+00
EXPONENTS  0.1097000D+01 0.1097000D+01 0.1097000D+01 0.1097000D+01 0.1097000D+01
EXPONENTS  0.1097000D+01 0.3180000D+00 0.3180000D+00 0.3180000D+00 0.3180000D+00
EXPONENTS  0.3180000D+00 0.3180000D+00 0.7610000D+00 0.7610000D+00 0.7610000D+00
EXPONENTS  0.7610000D+00 0.7610000D+00 0.7610000D+00 0.7610000D+00 0.7610000D+00
EXPONENTS  0.7610000D+00 0.7610000D+00 0.1357535D+05 0.2035233D+04 0.4632256D+03
EXPONENTS  0.1312002D+03 0.4285302D+02 0.1558419D+02 0.6206714D+01 0.2576490D+01
EXPONENTS  0.5769634D+00 0.2297283D+00 0.9516444D-01 0.3469723D+02 0.7958262D+01
EXPONENTS  0.2378083D+01 0.8143321D+00 0.3469723D+02 0.7958262D+01 0.2378083D+01
EXPONENTS  0.8143321D+00 0.3469723D+02 0.7958262D+01 0.2378083D+01 0.8143321D+00
EXPONENTS  0.2888755D+00 0.2888755D+00 0.2888755D+00 0.1005682D+00 0.1005682D+00
EXPONENTS  0.1005682D+00 0.1097000D+01 0.1097000D+01 0.1097000D+01 0.1097000D+01
EXPONENTS  0.1097000D+01 0.1097000D+01 0.3180000D+00 0.3180000D+00 0.3180000D+00
EXPONENTS  0.3180000D+00 0.3180000D+00 0.3180000D+00 0.7610000D+00 0.7610000D+00
EXPONENTS  0.7610000D+00 0.7610000D+00 0.7610000D+00 0.7610000D+00 0.7610000D+00
EXPONENTS  0.7610000D+00 0.7610000D+00 0.7610000D+00 0.3406134D+02 0.5123575D+01
EXPONENTS  0.1164663D+01 0.3272304D+00 0.1030724D+00 0.8000000D+00 0.8000000D+00
EXPONENTS  0.8000000D+00 0.3406134D+02 0.5123575D+01 0.1164663D+01 0.3272304D+00
EXPONENTS  0.1030724D+00 0.8000000D+00 0.8000000D+00 0.8000000D+00 0.3406134D+02
EXPONENTS  0.5123575D+01 0.1164663D+01 0.3272304D+00 0.1030724D+00 0.8000000D+00
EXPONENTS  0.8000000D+00 0.8000000D+00 0.3406134D+02 0.5123575D+01 0.1164663D+01
EXPONENTS  0.3272304D+00 0.1030724D+00 0.8000000D+00 0.8000000D+00 0.8000000D+00
EXPONENTS  0.3406134D+02 0.5123575D+01 0.1164663D+01 0.3272304D+00 0.1030724D+00
EXPONENTS  0.8000000D+00 0.8000000D+00 0.8000000D+00 0.3406134D+02 0.5123575D+01
EXPONENTS  0.1164663D+01 0.3272304D+00 0.1030724D+00 0.8000000D+00 0.8000000D+00
EXPONENTS  0.8000000D+00 0.3406134D+02 0.5123575D+01 0.1164663D+01 0.3272304D+00
EXPONENTS  0.1030724D+00 0.8000000D+00 0.8000000D+00 0.8000000D+00 0.3406134D+02
EXPONENTS  0.5123575D+01 0.1164663D+01 0.3272304D+00 0.1030724D+00 0.8000000D+00
EXPONENTS  0.8000000D+00 0.8000000D+00 0.3406134D+02 0.5123575D+01 0.1164663D+01
EXPONENTS  0.3272304D+00 0.1030724D+00 0.8000000D+00 0.8000000D+00 0.8000000D+00
EXPONENTS  0.3406134D+02 0.5123575D+01 0.1164663D+01 0.3272304D+00 0.1030724D+00
EXPONENTS  0.8000000D+00 0.8000000D+00 0.8000000D+00 0.3406134D+02 0.5123575D+01
EXPONENTS  0.1164663D+01 0.3272304D+00 0.1030724D+00 0.8000000D+00 0.8000000D+00
EXPONENTS  0.8000000D+00 0.3406134D+02 0.5123575D+01 0.1164663D+01 0.3272304D+00
EXPONENTS  0.1030724D+00 0.8000000D+00 0.8000000D+00 0.8000000D+00 0.3406134D+02
EXPONENTS  0.5123575D+01 0.1164663D+01 0.3272304D+00 0.1030724D+00 0.8000000D+00
EXPONENTS  0.8000000D+00 0.8000000D+00 0.3406134D+02 0.5123575D+01 0.1164663D+01
EXPONENTS  0.3272304D+00 0.1030724D+00 0.8000000D+00 0.8000000D+00 0.8000000D+00
EXPONENTS  0.3406134D+02 0.5123575D+01 0.1164663D+01 0.3272304D+00 0.1030724D+00
EXPONENTS  0.8000000D+00 0.8000000D+00 0.8000000D+00 0.3406134D+02 0.5123575D+01
EXPONENTS  0.1164663D+01 0.3272304D+00 0.1030724D+00 0.8000000D+00 0.8000000D+00
EXPONENTS  0.8000000D+00 0.3406134D+02 0.5123575D+01 0.1164663D+01 0.3272304D+00
EXPONENTS  0.1030724D+00 0.8000000D+00 0.8000000D+00 0.8000000D+00 0.3406134D+02
EXPONENTS  0.5123575D+01 0.1164663D+01 0.3272304D+00 0.1030724D+00 0.8000000D+00
EXPONENTS  0.8000000D+00 0.8000000D+00
MO    1     MO 0.0        OCC NO =    2.0000000  ORB. ENERGY =  -11.058701
  0.39160453D-04  0.73088843D-04  0.12474312D-03  0.19386326D-03  0.25966614D-03
  0.26673336D-03  0.32217224D-03  0.95468967D-04 -0.75580818D-04 -0.31475839D-03
 -0.87384953D-04 -0.97663672D-04 -0.10424278D-03 -0.91289404D-04 -0.57648121D-04
  0.48461675D-03  0.51726294D-03  0.45298700D-03  0.28605564D-03  0.24064667D-11
  0.25685783D-11  0.22494026D-11  0.14204697D-11 -0.89777023D-05  0.37908091D-03
  0.15585854D-11 -0.62855600D-04  0.94962703D-04 -0.20739749D-11  0.44467013D-04
 -0.60264981D-04  0.15797967D-04 -0.21672334D-04 -0.22215188D-12 -0.55002065D-11
  0.47607173D-04 -0.76453147D-04  0.28845974D-04 -0.75386241D-04 -0.18695530D-12
 -0.75113228D-12 -0.15100729D-04  0.34125989D-04 -0.26063406D-12  0.52365312D-04
 -0.39113405D-04 -0.38410168D-12 -0.70631251D-05 -0.63264563D-04  0.11660039D-11
  0.64370432D-12 -0.65371819D-04 -0.12200958D-03 -0.20823775D-03 -0.32362225D-03
 -0.43346913D-03 -0.44526668D-03 -0.48564809D-03 -0.14391159D-03  0.11889540D-03
  0.22052582D-03  0.10882779D-03  0.48973358D-03  0.52272447D-03  0.45776987D-03
  0.28907597D-03 -0.54270824D-03 -0.57926777D-03 -0.50728701D-03 -0.32034542D-03
  0.84801831D-10  0.90514503D-10  0.79267023D-10  0.50056137D-10 -0.87248520D-04
  0.17530272D-03  0.15434696D-10  0.20137226D-04  0.26325387D-04  0.28748512D-11
  0.18804239D-03 -0.31696269D-03  0.12892030D-03  0.31968558D-03 -0.12285059D-10
 -0.83845085D-11 -0.57278292D-04  0.95463126D-04 -0.38184834D-04  0.45673960D-04
 -0.14282759D-11 -0.95920883D-12  0.33954068D-04  0.40856101D-04 -0.12077865D-12
 -0.89135238D-04 -0.34062452D-04 -0.58641117D-13 -0.12726965D-04 -0.88505852D-04
  0.42097706D-12  0.16681432D-12 -0.10010704D-04 -0.18683920D-04 -0.31888458D-04
 -0.49557847D-04 -0.66379234D-04 -0.68185851D-04 -0.77481911D-04 -0.22960134D-04
  0.37690474D-04 -0.11528900D-04 -0.10424297D-03  0.16201799D-03  0.17293232D-03
  0.15144347D-03  0.95634664D-04 -0.56143246D-04 -0.59925334D-04 -0.52478915D-04
 -0.33139780D-04 -0.43029779D-11 -0.45928478D-11 -0.40221331D-11 -0.25399269D-11
 -0.34179739D-05 -0.23669593D-04 -0.14169209D-11 -0.19367719D-04 -0.95598201D-06
  0.17156417D-11  0.20514855D-04 -0.24405865D-04  0.38910101D-05  0.38991944D-04
 -0.17093843D-11 -0.14012022D-11 -0.10918963D-04  0.58968632D-05  0.50220998D-05
 -0.17908907D-05 -0.15145715D-11 -0.82697161D-12 -0.21154620D-05 -0.53537253D-05
 -0.76533460D-13  0.95245394D-05  0.11148187D-04  0.56032533D-12 -0.31781535D-05
  0.49129891D-05 -0.33072495D-12 -0.59044402D-12  0.40450707D-03  0.75496965D-03
  0.12885314D-02  0.20025064D-02  0.26822159D-02  0.27552166D-02  0.33814796D-02
  0.10020304D-02 -0.13116404D-02 -0.73989929D-03 -0.45366696D-03  0.21742529D-03
  0.23207214D-03  0.20323448D-03  0.12834004D-03  0.73252312D-02  0.78186952D-02
  0.68471314D-02  0.43238781D-02  0.45861420D-11  0.48950873D-11  0.42868158D-11
  0.27070707D-11 -0.54534386D-04  0.17417592D-02 -0.27850615D-13 -0.96686190D-06
  0.28448060D-03 -0.14306699D-11  0.50979494D-03 -0.10728322D-02  0.56303730D-03
  0.51098160D-04 -0.76382041D-11 -0.99377806D-11  0.22208056D-03 -0.34789162D-03
  0.12581106D-03 -0.12522987D-03 -0.23304066D-11 -0.27722335D-11 -0.25572396D-04
  0.28058203D-03 -0.10661933D-11  0.24240957D-04 -0.39903977D-03  0.29827470D-12
  0.52476232D-04 -0.44270631D-03  0.29003051D-11 -0.13252087D-11  0.46155412D-05
  0.86144194D-05  0.14702511D-04  0.22849171D-04  0.30604849D-04  0.31437809D-04
  0.36448764D-04  0.10800824D-04 -0.22392050D-04 -0.37670712D-05  0.34550605D-04
 -0.13045094D-04 -0.13923876D-04 -0.12193672D-04 -0.77001521D-05  0.70063606D-04
  0.74783439D-04  0.65490727D-04  0.41356578D-04 -0.10442302D-10 -0.11145747D-10
 -0.97607586D-11 -0.61637974D-11  0.10971431D-04  0.50716136D-05 -0.38911372D-11
 -0.19746606D-04  0.88774628D-05 -0.34954812D-11  0.41880136D-05 -0.22513173D-05
 -0.19366964D-05 -0.13732747D-04 -0.31541798D-10  0.50993782D-11 -0.15141942D-05
  0.31638825D-05 -0.16496883D-05 -0.10348811D-04 -0.84832862D-11 -0.26063772D-12
 -0.32599904D-05 -0.29240103D-05 -0.20758865D-11  0.84386319D-05  0.31051530D-05
  0.66094341D-11  0.13413394D-05  0.56668779D-05 -0.38177459D-12 -0.83913949D-11
  0.25651586D+00  0.47875971D+00  0.81711486D+00  0.12698781D+01  0.17009119D+01
  0.17472050D+01  0.11449447D+01  0.33928027D+00  0.12736551D-02 -0.63464596D-02
  0.14872275D-02  0.12271776D-02  0.13098464D-02  0.11470828D-02  0.72436847D-03
  0.47352101D-03  0.50541974D-03  0.44261546D-03  0.27950615D-03  0.18337916D-09
  0.19573250D-09  0.17141046D-09  0.10824357D-09 -0.33182068D-04  0.26403401D-03
  0.33571821D-10  0.52300633D-04  0.88782843D-04  0.37382009D-11  0.18251959D-04
 -0.28084903D-04  0.98329442D-05  0.49992636D-04 -0.24912474D-10 -0.17451140D-10
 -0.92764302D-04  0.34093597D-04  0.58670705D-04  0.64074782D-04 -0.33886886D-11
 -0.21060098D-11  0.84100906D-04  0.10199217D-03 -0.10401970D-12  0.77857681D-04
 -0.14700721D-04  0.80989515D-12 -0.33016040D-03 -0.29127579D-03 -0.49783606D-12
  0.10857048D-11 -0.24429409D-05 -0.45594908D-05 -0.77818321D-05 -0.12093744D-04
 -0.16198715D-04 -0.16639589D-04 -0.18713933D-04 -0.55454803D-05  0.57207681D-05
  0.13868478D-04 -0.47787024D-04  0.32843580D-04  0.35056087D-04  0.30699960D-04
  0.19386642D-04 -0.15489313D-04 -0.16532750D-04 -0.14478364D-04 -0.91429061D-05
  0.49832928D-09  0.53189922D-09  0.46580455D-09  0.29414977D-09  0.45496149D-05
 -0.81807086D-05  0.93078437D-10 -0.60960654D-05  0.43677487D-05  0.10969340D-10
  0.35540123D-05 -0.44733602D-05  0.91934787D-06  0.42060417D-05 -0.72049030D-10
 -0.39248799D-10  0.50325768D-06 -0.17649966D-05  0.12617389D-05 -0.78192460D-06
 -0.85172036D-11 -0.35537582D-11  0.12819510D-05 -0.42031698D-07  0.16297248D-12
 -0.95155912D-06 -0.11069126D-05  0.32788357D-12 -0.28942938D-05  0.12330077D-05
 -0.81680102D-12  0.29084611D-11  0.40383203D-03  0.75370976D-03  0.12863811D-02
  0.19991647D-02  0.26777398D-02  0.27506187D-02  0.33621018D-02  0.99628814D-03
 -0.13698888D-02 -0.53156219D-03 -0.35867246D-03  0.67085565D-02  0.71604783D-02
  0.62707055D-02  0.39598724D-02 -0.29107864D-02 -0.31068714D-02 -0.27208065D-02
 -0.17181554D-02  0.23121834D-10  0.24679436D-10  0.21612729D-10  0.13648169D-10
  0.12646673D-02 -0.60825089D-03  0.42306420D-11  0.16887388D-03 -0.55693339D-04
 -0.31902217D-12 -0.82935919D-03  0.27746768D-03  0.55189151D-03  0.11353062D-02
 -0.82582259D-11  0.35528336D-11 -0.18596842D-03  0.10741886D-03  0.78549563D-04
  0.24248637D-03 -0.24239828D-11  0.33899712D-12  0.14921446D-03  0.87774272D-04
 -0.72521705D-12 -0.11735526D-03 -0.48436237D-03  0.25226210D-11 -0.33028811D-03
  0.22103956D-03 -0.34696986D-12 -0.24691789D-11 -0.83549121D-05 -0.15078916D-04
 -0.22261519D-04 -0.20450967D-04  0.54623451D-05  0.11055628D-04  0.20434551D-04
  0.91267892D-05 -0.83549113D-05 -0.15078914D-04 -0.22261517D-04 -0.20450965D-04
  0.54623427D-05  0.11055627D-04  0.20434552D-04 -0.91267885D-05  0.48100868D-04
  0.86812275D-04  0.12816393D-03  0.67614007D-04  0.35821228D-04 -0.39773270D-05
  0.33472939D-04  0.96398886D-05  0.48100852D-04  0.86812247D-04  0.12816389D-03
  0.67613978D-04  0.35821224D-04 -0.39773334D-05  0.33472935D-04 -0.96398937D-05
  0.10976765D-05  0.19810826D-05  0.29247400D-05  0.96443861D-05  0.12841659D-05
  0.47219171D-05 -0.95916155D-06  0.57649577D-06  0.10976773D-05  0.19810840D-05
  0.29247421D-05  0.96443857D-05  0.12841649D-05  0.47219158D-05 -0.95916071D-06
 -0.57649560D-06  0.68406341D-04  0.12345952D-03  0.18226751D-03  0.12963647D-03
  0.21474451D-04 -0.16593139D-04  0.19667115D-03  0.42304047D-04  0.68406338D-04
  0.12345951D-03  0.18226750D-03  0.12963647D-03  0.21474446D-04 -0.16593139D-04
  0.19667115D-03 -0.42304048D-04 -0.15291935D-05 -0.27598829D-05 -0.40745095D-05
 -0.67192800D-05 -0.63398095D-06  0.26200791D-05  0.50194021D-05  0.34009225D-05
 -0.15291854D-05 -0.27598683D-05 -0.40744880D-05 -0.67192654D-05 -0.63397167D-06
  0.26200810D-05  0.50194006D-05 -0.34009233D-05 -0.12158552D-02 -0.21943712D-02
 -0.32396253D-02 -0.19807281D-02 -0.39786017D-03 -0.67626610D-03 -0.45157515D-03
  0.10340000D-02 -0.12158553D-02 -0.21943713D-02 -0.32396254D-02 -0.19807281D-02
 -0.39786019D-03 -0.67626611D-03 -0.45157516D-03 -0.10340000D-02 -0.17257793D-05
 -0.31146803D-05 -0.45983091D-05  0.10386322D-05 -0.25001566D-05  0.20890406D-05
 -0.26331066D-05  0.12655402D-10  0.82256277D-07  0.14845584D-06  0.21917043D-06
  0.20472062D-05  0.44960555D-05 -0.11281299D-05 -0.66242293D-06 -0.79514763D-06
  0.82343582D-07  0.14861340D-06  0.21940305D-06  0.20473694D-05  0.44960862D-05
 -0.11280935D-05 -0.66240454D-06  0.79511902D-06  0.73419842D-04  0.13250787D-03
  0.19562590D-03  0.84402809D-04  0.87868517D-04  0.20614227D-03 -0.80052501D-04
  0.51839295D-12  0.69778539D-04  0.12593606D-03  0.18592371D-03  0.13845666D-03
  0.25399015D-04  0.17371192D-03 -0.12715472D-03  0.48146994D-04  0.69778540D-04
  0.12593606D-03  0.18592371D-03  0.13845667D-03  0.25399013D-04  0.17371191D-03
 -0.12715472D-03 -0.48146995D-04
MO    2     MO 0.0        OCC NO =    2.0000000  ORB. ENERGY =  -11.058701
 -0.65371811D-04 -0.12200957D-03 -0.20823772D-03 -0.32362221D-03 -0.43346908D-03
 -0.44526663D-03 -0.48564801D-03 -0.14391157D-03  0.11889538D-03  0.22052573D-03
  0.10882782D-03 -0.48973361D-03 -0.52272450D-03 -0.45776990D-03 -0.28907598D-03
  0.54270826D-03  0.57926779D-03  0.50728703D-03  0.32034543D-03 -0.27202272D-10
 -0.29034752D-10 -0.25426846D-10 -0.16056736D-10  0.87248579D-04 -0.17530273D-03
 -0.20138390D-11 -0.20137236D-04 -0.26325376D-04  0.21070792D-11  0.18804240D-03
 -0.31696268D-03  0.12892029D-03  0.31968561D-03  0.41014514D-11  0.35840346D-10
 -0.57278308D-04  0.95463127D-04 -0.38184819D-04  0.45673973D-04  0.33925708D-11
  0.96316400D-11 -0.33954072D-04 -0.40856108D-04  0.28953305D-11  0.89135239D-04
  0.34062456D-04  0.24602733D-11  0.12726976D-04  0.88505868D-04 -0.11146265D-10
  0.18153343D-11  0.39160419D-04  0.73088779D-04  0.12474301D-03  0.19386309D-03
  0.25966591D-03  0.26673313D-03  0.32217194D-03  0.95468876D-04 -0.75580668D-04
 -0.31475832D-03 -0.87384958D-04  0.97663272D-04  0.10424235D-03  0.91289030D-04
  0.57647884D-04 -0.48461695D-03 -0.51726316D-03 -0.45298720D-03 -0.28605577D-03
 -0.65007064D-09 -0.69386263D-09 -0.60764213D-09 -0.38371843D-09  0.89776033D-05
 -0.37908093D-03 -0.11893538D-09  0.62855582D-04 -0.94962704D-04 -0.10687748D-10
  0.44467015D-04 -0.60265027D-04  0.15798012D-04 -0.21672271D-04  0.56560023D-10
  0.63044955D-10  0.47607172D-04 -0.76453150D-04  0.28845978D-04 -0.75386234D-04
  0.12831776D-11  0.69632233D-11  0.15100737D-04 -0.34125986D-04  0.22227199D-11
 -0.52365322D-04  0.39113405D-04 -0.83110611D-11  0.70631119D-05  0.63264553D-04
  0.16429013D-11  0.50878163D-11  0.40450707D-03  0.75496965D-03  0.12885314D-02
  0.20025064D-02  0.26822158D-02  0.27552166D-02  0.33814797D-02  0.10020304D-02
 -0.13116405D-02 -0.73989915D-03 -0.45366706D-03 -0.21742535D-03 -0.23207220D-03
 -0.20323453D-03 -0.12834007D-03 -0.73252312D-02 -0.78186952D-02 -0.68471314D-02
 -0.43238781D-02 -0.91103628D-11 -0.97240822D-11 -0.85157518D-11 -0.53775911D-11
  0.54534444D-04 -0.17417592D-02 -0.97188699D-12  0.96685515D-06 -0.28448059D-03
 -0.59120170D-12  0.50979493D-03 -0.10728323D-02  0.56303734D-03  0.51098189D-04
  0.17869452D-11  0.22050216D-11  0.22208057D-03 -0.34789161D-03  0.12581103D-03
 -0.12522991D-03  0.15201667D-11  0.27429427D-11  0.25572414D-04 -0.28058202D-03
  0.72681875D-13 -0.24240985D-04  0.39903976D-03 -0.84010211D-13 -0.52476257D-04
  0.44270631D-03 -0.13403541D-12  0.54665581D-12 -0.10010735D-04 -0.18683977D-04
 -0.31888555D-04 -0.49557998D-04 -0.66379436D-04 -0.68186058D-04 -0.77482131D-04
 -0.22960200D-04  0.37690551D-04 -0.11528848D-04 -0.10424295D-03 -0.16201759D-03
 -0.17293190D-03 -0.15144310D-03 -0.95634429D-04  0.56143623D-04  0.59925737D-04
  0.52479267D-04  0.33140003D-04 -0.57544193D-09 -0.61420656D-09 -0.53788425D-09
 -0.33966720D-09  0.34180441D-05  0.23669673D-04 -0.10382345D-09  0.19367721D-04
  0.95599713D-06 -0.10522799D-10  0.20514861D-04 -0.24405921D-04  0.38910598D-05
  0.38992000D-04 -0.43415522D-10 -0.61408743D-10 -0.10918956D-04  0.58968539D-05
  0.50221017D-05 -0.17908941D-05 -0.76070117D-12 -0.67982003D-11  0.21154549D-05
  0.53537254D-05  0.24960223D-11 -0.95245288D-05 -0.11148191D-04 -0.97489018D-11
  0.31781640D-05 -0.49129847D-05  0.22608349D-11  0.73842940D-11  0.25651586D+00
  0.47875971D+00  0.81711486D+00  0.12698781D+01  0.17009119D+01  0.17472050D+01
  0.11449447D+01  0.33928027D+00  0.12736551D-02 -0.63464596D-02  0.14872275D-02
 -0.12271775D-02 -0.13098463D-02 -0.11470827D-02 -0.72436841D-03 -0.47352098D-03
 -0.50541971D-03 -0.44261543D-03 -0.27950613D-03  0.11158719D-10  0.11910426D-10
  0.10430417D-10  0.65866784D-11  0.33182149D-04 -0.26403397D-03 -0.32231037D-11
 -0.52300640D-04 -0.88782843D-04  0.77446715D-12  0.18251947D-04 -0.28084905D-04
  0.98329571D-05  0.49992676D-04  0.32438341D-12 -0.16214933D-11 -0.92764316D-04
  0.34093588D-04  0.58670728D-04  0.64074785D-04 -0.28495605D-11 -0.22772264D-12
 -0.84100913D-04 -0.10199218D-03 -0.31234085D-12 -0.77857680D-04  0.14700732D-04
 -0.12033483D-12  0.33016042D-03  0.29127582D-03  0.10573574D-11 -0.25863626D-11
  0.46155557D-05  0.86144463D-05  0.14702557D-04  0.22849242D-04  0.30604945D-04
  0.31437907D-04  0.36448882D-04  0.10800859D-04 -0.22392100D-04 -0.37671128D-05
  0.34550604D-04  0.13045126D-04  0.13923911D-04  0.12193703D-04  0.77001712D-05
 -0.70063847D-04 -0.74783696D-04 -0.65490952D-04 -0.41356719D-04  0.13012406D-10
  0.13888987D-10  0.12163118D-10  0.76808576D-11 -0.10971433D-04 -0.50716590D-05
  0.72590701D-11  0.19746605D-04 -0.88774681D-05  0.53522447D-11  0.41880233D-05
 -0.22513351D-05 -0.19366882D-05 -0.13732727D-04 -0.37001420D-10 -0.29604577D-10
 -0.15141960D-05  0.31638821D-05 -0.16496861D-05 -0.10348808D-04 -0.10763489D-10
 -0.87268886D-11  0.32599880D-05  0.29240081D-05  0.45425504D-11 -0.84386282D-05
 -0.31051497D-05 -0.43206469D-11 -0.13413358D-05 -0.56668747D-05 -0.93070042D-11
  0.93938339D-11  0.40383213D-03  0.75370995D-03  0.12863814D-02  0.19991652D-02
  0.26777404D-02  0.27506194D-02  0.33621023D-02  0.99628828D-03 -0.13698888D-02
 -0.53156219D-03 -0.35867248D-03 -0.67085566D-02 -0.71604783D-02 -0.62707056D-02
 -0.39598724D-02  0.29107863D-02  0.31068714D-02  0.27208065D-02  0.17181554D-02
  0.11087342D-11  0.11834241D-11  0.10363698D-11  0.65445464D-12 -0.12646673D-02