 C8H18 - base Def2TZVP (allE) - geom opt same basis - Orb
GAUSSIAN             33 MOL ORBITALS    552 PRIMITIVES       26 NUCLEI
  C    1    (CENTRE  1)   0.00536385  1.44487465  0.00000000  CHARGE =  6.0
  C    2    (CENTRE  2)  -0.00536385 -1.44487465  0.00000000  CHARGE =  6.0
  C    3    (CENTRE  3)  -2.63790576  2.61086078  0.00000000  CHARGE =  6.0
  C    4    (CENTRE  4)   2.63790576 -2.61086078  0.00000000  CHARGE =  6.0
  C    5    (CENTRE  5)  -2.63790576  5.50025204  0.00000000  CHARGE =  6.0
  C    6    (CENTRE  6)   2.63790576 -5.50025204  0.00000000  CHARGE =  6.0
  C    7    (CENTRE  7)  -5.28793845  6.64364800  0.00000000  CHARGE =  6.0
  C    8    (CENTRE  8)   5.28793845 -6.64364800  0.00000000  CHARGE =  6.0
  H    9    (CENTRE  9)   1.05147791  2.12384322  1.65403537  CHARGE =  1.0
  H   10    (CENTRE 10)   1.05147791  2.12384322 -1.65403537  CHARGE =  1.0
  H   11    (CENTRE 11)  -1.05147791 -2.12384322  1.65403537  CHARGE =  1.0
  H   12    (CENTRE 12)  -1.05147791 -2.12384322 -1.65403537  CHARGE =  1.0
  H   13    (CENTRE 13)  -3.68476996  1.93129661 -1.65378953  CHARGE =  1.0
  H   14    (CENTRE 14)  -3.68476996  1.93129661  1.65378953  CHARGE =  1.0
  H   15    (CENTRE 15)   3.68476996 -1.93129661 -1.65378953  CHARGE =  1.0
  H   16    (CENTRE 16)   3.68476996 -1.93129661  1.65378953  CHARGE =  1.0
  H   17    (CENTRE 17)  -1.59388000  6.18022318  1.65305001  CHARGE =  1.0
  H   18    (CENTRE 18)  -1.59388000  6.18022318 -1.65305001  CHARGE =  1.0
  H   19    (CENTRE 19)   1.59388000 -6.18022318  1.65305001  CHARGE =  1.0
  H   20    (CENTRE 20)   1.59388000 -6.18022318 -1.65305001  CHARGE =  1.0
  H   21    (CENTRE 21)  -5.22133541  8.70634291  0.00000000  CHARGE =  1.0
  H   22    (CENTRE 22)  -6.35663849  6.05155446 -1.66560956  CHARGE =  1.0
  H   23    (CENTRE 23)  -6.35663849  6.05155446  1.66560956  CHARGE =  1.0
  H   24    (CENTRE 24)   5.22133541 -8.70634291  0.00000000  CHARGE =  1.0
  H   25    (CENTRE 25)   6.35663849 -6.05155446 -1.66560956  CHARGE =  1.0
  H   26    (CENTRE 26)   6.35663849 -6.05155446  1.66560956  CHARGE =  1.0
CENTRE ASSIGNMENTS    1  1  1  1  1  1  1  1  1  1  1  1  1  1  1  1  1  1  1  1
CENTRE ASSIGNMENTS    1  1  1  1  1  1  1  1  1  1  1  1  1  1  1  1  1  1  1  1
CENTRE ASSIGNMENTS    1  1  1  1  1  1  1  1  1  1  1  2  2  2  2  2  2  2  2  2
CENTRE ASSIGNMENTS    2  2  2  2  2  2  2  2  2  2  2  2  2  2  2  2  2  2  2  2
CENTRE ASSIGNMENTS    2  2  2  2  2  2  2  2  2  2  2  2  2  2  2  2  2  2  2  2
CENTRE ASSIGNMENTS    2  2  3  3  3  3  3  3  3  3  3  3  3  3  3  3  3  3  3  3
CENTRE ASSIGNMENTS    3  3  3  3  3  3  3  3  3  3  3  3  3  3  3  3  3  3  3  3
CENTRE ASSIGNMENTS    3  3  3  3  3  3  3  3  3  3  3  3  3  4  4  4  4  4  4  4
CENTRE ASSIGNMENTS    4  4  4  4  4  4  4  4  4  4  4  4  4  4  4  4  4  4  4  4
CENTRE ASSIGNMENTS    4  4  4  4  4  4  4  4  4  4  4  4  4  4  4  4  4  4  4  4
CENTRE ASSIGNMENTS    4  4  4  4  5  5  5  5  5  5  5  5  5  5  5  5  5  5  5  5
CENTRE ASSIGNMENTS    5  5  5  5  5  5  5  5  5  5  5  5  5  5  5  5  5  5  5  5
CENTRE ASSIGNMENTS    5  5  5  5  5  5  5  5  5  5  5  5  5  5  5  6  6  6  6  6
CENTRE ASSIGNMENTS    6  6  6  6  6  6  6  6  6  6  6  6  6  6  6  6  6  6  6  6
CENTRE ASSIGNMENTS    6  6  6  6  6  6  6  6  6  6  6  6  6  6  6  6  6  6  6  6
CENTRE ASSIGNMENTS    6  6  6  6  6  6  7  7  7  7  7  7  7  7  7  7  7  7  7  7
CENTRE ASSIGNMENTS    7  7  7  7  7  7  7  7  7  7  7  7  7  7  7  7  7  7  7  7
CENTRE ASSIGNMENTS    7  7  7  7  7  7  7  7  7  7  7  7  7  7  7  7  7  8  8  8
CENTRE ASSIGNMENTS    8  8  8  8  8  8  8  8  8  8  8  8  8  8  8  8  8  8  8  8
CENTRE ASSIGNMENTS    8  8  8  8  8  8  8  8  8  8  8  8  8  8  8  8  8  8  8  8
CENTRE ASSIGNMENTS    8  8  8  8  8  8  8  8  9  9  9  9  9  9  9  9 10 10 10 10
CENTRE ASSIGNMENTS   10 10 10 10 11 11 11 11 11 11 11 11 12 12 12 12 12 12 12 12
CENTRE ASSIGNMENTS   13 13 13 13 13 13 13 13 14 14 14 14 14 14 14 14 15 15 15 15
CENTRE ASSIGNMENTS   15 15 15 15 16 16 16 16 16 16 16 16 17 17 17 17 17 17 17 17
CENTRE ASSIGNMENTS   18 18 18 18 18 18 18 18 19 19 19 19 19 19 19 19 20 20 20 20
CENTRE ASSIGNMENTS   20 20 20 20 21 21 21 21 21 21 21 21 22 22 22 22 22 22 22 22
CENTRE ASSIGNMENTS   23 23 23 23 23 23 23 23 24 24 24 24 24 24 24 24 25 25 25 25
CENTRE ASSIGNMENTS   25 25 25 25 26 26 26 26 26 26 26 26
TYPE ASSIGNMENTS      1  1  1  1  1  1  1  1  1  1  1  2  2  2  2  3  3  3  3  4
TYPE ASSIGNMENTS      4  4  4  2  3  4  2  3  4  5  6  7  8  9 10  5  6  7  8  9
TYPE ASSIGNMENTS     10 11 12 13 17 14 15 18 19 16 20  1  1  1  1  1  1  1  1  1
TYPE ASSIGNMENTS      1  1  2  2  2  2  3  3  3  3  4  4  4  4  2  3  4  2  3  4
TYPE ASSIGNMENTS      5  6  7  8  9 10  5  6  7  8  9 10 11 12 13 17 14 15 18 19
TYPE ASSIGNMENTS     16 20  1  1  1  1  1  1  1  1  1  1  1  2  2  2  2  3  3  3
TYPE ASSIGNMENTS      3  4  4  4  4  2  3  4  2  3  4  5  6  7  8  9 10  5  6  7
TYPE ASSIGNMENTS      8  9 10 11 12 13 17 14 15 18 19 16 20  1  1  1  1  1  1  1
TYPE ASSIGNMENTS      1  1  1  1  2  2  2  2  3  3  3  3  4  4  4  4  2  3  4  2
TYPE ASSIGNMENTS      3  4  5  6  7  8  9 10  5  6  7  8  9 10 11 12 13 17 14 15
TYPE ASSIGNMENTS     18 19 16 20  1  1  1  1  1  1  1  1  1  1  1  2  2  2  2  3
TYPE ASSIGNMENTS      3  3  3  4  4  4  4  2  3  4  2  3  4  5  6  7  8  9 10  5
TYPE ASSIGNMENTS      6  7  8  9 10 11 12 13 17 14 15 18 19 16 20  1  1  1  1  1
TYPE ASSIGNMENTS      1  1  1  1  1  1  2  2  2  2  3  3  3  3  4  4  4  4  2  3
TYPE ASSIGNMENTS      4  2  3  4  5  6  7  8  9 10  5  6  7  8  9 10 11 12 13 17
TYPE ASSIGNMENTS     14 15 18 19 16 20  1  1  1  1  1  1  1  1  1  1  1  2  2  2
TYPE ASSIGNMENTS      2  3  3  3  3  4  4  4  4  2  3  4  2  3  4  5  6  7  8  9
TYPE ASSIGNMENTS     10  5  6  7  8  9 10 11 12 13 17 14 15 18 19 16 20  1  1  1
TYPE ASSIGNMENTS      1  1  1  1  1  1  1  1  2  2  2  2  3  3  3  3  4  4  4  4
TYPE ASSIGNMENTS      2  3  4  2  3  4  5  6  7  8  9 10  5  6  7  8  9 10 11 12
TYPE ASSIGNMENTS     13 17 14 15 18 19 16 20  1  1  1  1  1  2  3  4  1  1  1  1
TYPE ASSIGNMENTS      1  2  3  4  1  1  1  1  1  2  3  4  1  1  1  1  1  2  3  4
TYPE ASSIGNMENTS      1  1  1  1  1  2  3  4  1  1  1  1  1  2  3  4  1  1  1  1
TYPE ASSIGNMENTS      1  2  3  4  1  1  1  1  1  2  3  4  1  1  1  1  1  2  3  4
TYPE ASSIGNMENTS      1  1  1  1  1  2  3  4  1  1  1  1  1  2  3  4  1  1  1  1
TYPE ASSIGNMENTS      1  2  3  4  1  1  1  1  1  2  3  4  1  1  1  1  1  2  3  4
TYPE ASSIGNMENTS      1  1  1  1  1  2  3  4  1  1  1  1  1  2  3  4  1  1  1  1
TYPE ASSIGNMENTS      1  2  3  4  1  1  1  1  1  2  3  4
EXPONENTS  0.1357535D+05 0.2035233D+04 0.4632256D+03 0.1312002D+03 0.4285302D+02
EXPONENTS  0.1558419D+02 0.6206714D+01 0.2576490D+01 0.5769634D+00 0.2297283D+00
EXPONENTS  0.9516444D-01 0.3469723D+02 0.7958262D+01 0.2378083D+01 0.8143321D+00
EXPONENTS  0.3469723D+02 0.7958262D+01 0.2378083D+01 0.8143321D+00 0.3469723D+02
EXPONENTS  0.7958262D+01 0.2378083D+01 0.8143321D+00 0.2888755D+00 0.2888755D+00
EXPONENTS  0.2888755D+00 0.1005682D+00 0.1005682D+00 0.1005682D+00 0.1097000D+01
EXPONENTS  0.1097000D+01 0.1097000D+01 0.1097000D+01 0.1097000D+01 0.1097000D+01
EXPONENTS  0.3180000D+00 0.3180000D+00 0.3180000D+00 0.3180000D+00 0.3180000D+00
EXPONENTS  0.3180000D+00 0.7610000D+00 0.7610000D+00 0.7610000D+00 0.7610000D+00
EXPONENTS  0.7610000D+00 0.7610000D+00 0.7610000D+00 0.7610000D+00 0.7610000D+00
EXPONENTS  0.7610000D+00 0.1357535D+05 0.2035233D+04 0.4632256D+03 0.1312002D+03
EXPONENTS  0.4285302D+02 0.1558419D+02 0.6206714D+01 0.2576490D+01 0.5769634D+00
EXPONENTS  0.2297283D+00 0.9516444D-01 0.3469723D+02 0.7958262D+01 0.2378083D+01
EXPONENTS  0.8143321D+00 0.3469723D+02 0.7958262D+01 0.2378083D+01 0.8143321D+00
EXPONENTS  0.3469723D+02 0.7958262D+01 0.2378083D+01 0.8143321D+00 0.2888755D+00
EXPONENTS  0.2888755D+00 0.2888755D+00 0.1005682D+00 0.1005682D+00 0.1005682D+00
EXPONENTS  0.1097000D+01 0.1097000D+01 0.1097000D+01 0.1097000D+01 0.1097000D+01
EXPONENTS  0.1097000D+01 0.3180000D+00 0.3180000D+00 0.3180000D+00 0.3180000D+00
EXPONENTS  0.3180000D+00 0.3180000D+00 0.7610000D+00 0.7610000D+00 0.7610000D+00
EXPONENTS  0.7610000D+00 0.7610000D+00 0.7610000D+00 0.7610000D+00 0.7610000D+00
EXPONENTS  0.7610000D+00 0.7610000D+00 0.1357535D+05 0.2035233D+04 0.4632256D+03
EXPONENTS  0.1312002D+03 0.4285302D+02 0.1558419D+02 0.6206714D+01 0.2576490D+01
EXPONENTS  0.5769634D+00 0.2297283D+00 0.9516444D-01 0.3469723D+02 0.7958262D+01
EXPONENTS  0.2378083D+01 0.8143321D+00 0.3469723D+02 0.7958262D+01 0.2378083D+01
EXPONENTS  0.8143321D+00 0.3469723D+02 0.7958262D+01 0.2378083D+01 0.8143321D+00
EXPONENTS  0.2888755D+00 0.2888755D+00 0.2888755D+00 0.1005682D+00 0.1005682D+00
EXPONENTS  0.1005682D+00 0.1097000D+01 0.1097000D+01 0.1097000D+01 0.1097000D+01
EXPONENTS  0.1097000D+01 0.1097000D+01 0.3180000D+00 0.3180000D+00 0.3180000D+00
EXPONENTS  0.3180000D+00 0.3180000D+00 0.3180000D+00 0.7610000D+00 0.7610000D+00
EXPONENTS  0.7610000D+00 0.7610000D+00 0.7610000D+00 0.7610000D+00 0.7610000D+00
EXPONENTS  0.7610000D+00 0.7610000D+00 0.7610000D+00 0.1357535D+05 0.2035233D+04
EXPONENTS  0.4632256D+03 0.1312002D+03 0.4285302D+02 0.1558419D+02 0.6206714D+01
EXPONENTS  0.2576490D+01 0.5769634D+00 0.2297283D+00 0.9516444D-01 0.3469723D+02
EXPONENTS  0.7958262D+01 0.2378083D+01 0.8143321D+00 0.3469723D+02 0.7958262D+01
EXPONENTS  0.2378083D+01 0.8143321D+00 0.3469723D+02 0.7958262D+01 0.2378083D+01
EXPONENTS  0.8143321D+00 0.2888755D+00 0.2888755D+00 0.2888755D+00 0.1005682D+00
EXPONENTS  0.1005682D+00 0.1005682D+00 0.1097000D+01 0.1097000D+01 0.1097000D+01
EXPONENTS  0.1097000D+01 0.1097000D+01 0.1097000D+01 0.3180000D+00 0.3180000D+00
EXPONENTS  0.3180000D+00 0.3180000D+00 0.3180000D+00 0.3180000D+00 0.7610000D+00
EXPONENTS  0.7610000D+00 0.7610000D+00 0.7610000D+00 0.7610000D+00 0.7610000D+00
EXPONENTS  0.7610000D+00 0.7610000D+00 0.7610000D+00 0.7610000D+00 0.1357535D+05
EXPONENTS  0.2035233D+04 0.4632256D+03 0.1312002D+03 0.4285302D+02 0.1558419D+02
EXPONENTS  0.6206714D+01 0.2576490D+01 0.5769634D+00 0.2297283D+00 0.9516444D-01
EXPONENTS  0.3469723D+02 0.7958262D+01 0.2378083D+01 0.8143321D+00 0.3469723D+02
EXPONENTS  0.7958262D+01 0.2378083D+01 0.8143321D+00 0.3469723D+02 0.7958262D+01
EXPONENTS  0.2378083D+01 0.8143321D+00 0.2888755D+00 0.2888755D+00 0.2888755D+00
EXPONENTS  0.1005682D+00 0.1005682D+00 0.1005682D+00 0.1097000D+01 0.1097000D+01
EXPONENTS  0.1097000D+01 0.1097000D+01 0.1097000D+01 0.1097000D+01 0.3180000D+00
EXPONENTS  0.3180000D+00 0.3180000D+00 0.3180000D+00 0.3180000D+00 0.3180000D+00
EXPONENTS  0.7610000D+00 0.7610000D+00 0.7610000D+00 0.7610000D+00 0.7610000D+00
EXPONENTS  0.7610000D+00 0.7610000D+00 0.7610000D+00 0.7610000D+00 0.7610000D+00
EXPONENTS  0.1357535D+05 0.2035233D+04 0.4632256D+03 0.1312002D+03 0.4285302D+02
EXPONENTS  0.1558419D+02 0.6206714D+01 0.2576490D+01 0.5769634D+00 0.2297283D+00
EXPONENTS  0.9516444D-01 0.3469723D+02 0.7958262D+01 0.2378083D+01 0.8143321D+00
EXPONENTS  0.3469723D+02 0.7958262D+01 0.2378083D+01 0.8143321D+00 0.3469723D+02
EXPONENTS  0.7958262D+01 0.2378083D+01 0.8143321D+00 0.2888755D+00 0.2888755D+00
EXPONENTS  0.2888755D+00 0.1005682D+00 0.1005682D+00 0.1005682D+00 0.1097000D+01
EXPONENTS  0.1097000D+01 0.1097000D+01 0.1097000D+01 0.1097000D+01 0.1097000D+01
EXPONENTS  0.3180000D+00 0.3180000D+00 0.3180000D+00 0.3180000D+00 0.3180000D+00
EXPONENTS  0.3180000D+00 0.7610000D+00 0.7610000D+00 0.7610000D+00 0.7610000D+00
EXPONENTS  0.7610000D+00 0.7610000D+00 0.7610000D+00 0.7610000D+00 0.7610000D+00
EXPONENTS  0.7610000D+00 0.1357535D+05 0.2035233D+04 0.4632256D+03 0.1312002D+03
EXPONENTS  0.4285302D+02 0.1558419D+02 0.6206714D+01 0.2576490D+01 0.5769634D+00
EXPONENTS  0.2297283D+00 0.9516444D-01 0.3469723D+02 0.7958262D+01 0.2378083D+01
EXPONENTS  0.8143321D+00 0.3469723D+02 0.7958262D+01 0.2378083D+01 0.8143321D+00
EXPONENTS  0.3469723D+02 0.7958262D+01 0.2378083D+01 0.8143321D+00 0.2888755D+00
EXPONENTS  0.2888755D+00 0.2888755D+00 0.1005682D+00 0.1005682D+00 0.1005682D+00
EXPONENTS  0.1097000D+01 0.1097000D+01 0.1097000D+01 0.1097000D+01 0.1097000D+01
EXPONENTS  0.1097000D+01 0.3180000D+00 0.3180000D+00 0.3180000D+00 0.3180000D+00
EXPONENTS  0.3180000D+00 0.3180000D+00 0.7610000D+00 0.7610000D+00 0.7610000D+00
EXPONENTS  0.7610000D+00 0.7610000D+00 0.7610000D+00 0.7610000D+00 0.7610000D+00
EXPONENTS  0.7610000D+00 0.7610000D+00 0.1357535D+05 0.2035233D+04 0.4632256D+03
EXPONENTS  0.1312002D+03 0.4285302D+02 0.1558419D+02 0.6206714D+01 0.2576490D+01
EXPONENTS  0.5769634D+00 0.2297283D+00 0.9516444D-01 0.3469723D+02 0.7958262D+01
EXPONENTS  0.2378083D+01 0.8143321D+00 0.3469723D+02 0.7958262D+01 0.2378083D+01
EXPONENTS  0.8143321D+00 0.3469723D+02 0.7958262D+01 0.2378083D+01 0.8143321D+00
EXPONENTS  0.2888755D+00 0.2888755D+00 0.2888755D+00 0.1005682D+00 0.1005682D+00
EXPONENTS  0.1005682D+00 0.1097000D+01 0.1097000D+01 0.1097000D+01 0.1097000D+01
EXPONENTS  0.1097000D+01 0.1097000D+01 0.3180000D+00 0.3180000D+00 0.3180000D+00
EXPONENTS  0.3180000D+00 0.3180000D+00 0.3180000D+00 0.7610000D+00 0.7610000D+00
EXPONENTS  0.7610000D+00 0.7610000D+00 0.7610000D+00 0.7610000D+00 0.7610000D+00
EXPONENTS  0.7610000D+00 0.7610000D+00 0.7610000D+00 0.3406134D+02 0.5123575D+01
EXPONENTS  0.1164663D+01 0.3272304D+00 0.1030724D+00 0.8000000D+00 0.8000000D+00
EXPONENTS  0.8000000D+00 0.3406134D+02 0.5123575D+01 0.1164663D+01 0.3272304D+00
EXPONENTS  0.1030724D+00 0.8000000D+00 0.8000000D+00 0.8000000D+00 0.3406134D+02
EXPONENTS  0.5123575D+01 0.1164663D+01 0.3272304D+00 0.1030724D+00 0.8000000D+00
EXPONENTS  0.8000000D+00 0.8000000D+00 0.3406134D+02 0.5123575D+01 0.1164663D+01
EXPONENTS  0.3272304D+00 0.1030724D+00 0.8000000D+00 0.8000000D+00 0.8000000D+00
EXPONENTS  0.3406134D+02 0.5123575D+01 0.1164663D+01 0.3272304D+00 0.1030724D+00
EXPONENTS  0.8000000D+00 0.8000000D+00 0.8000000D+00 0.3406134D+02 0.5123575D+01
EXPONENTS  0.1164663D+01 0.3272304D+00 0.1030724D+00 0.8000000D+00 0.8000000D+00
EXPONENTS  0.8000000D+00 0.3406134D+02 0.5123575D+01 0.1164663D+01 0.3272304D+00
EXPONENTS  0.1030724D+00 0.8000000D+00 0.8000000D+00 0.8000000D+00 0.3406134D+02
EXPONENTS  0.5123575D+01 0.1164663D+01 0.3272304D+00 0.1030724D+00 0.8000000D+00
EXPONENTS  0.8000000D+00 0.8000000D+00 0.3406134D+02 0.5123575D+01 0.1164663D+01
EXPONENTS  0.3272304D+00 0.1030724D+00 0.8000000D+00 0.8000000D+00 0.8000000D+00
EXPONENTS  0.3406134D+02 0.5123575D+01 0.1164663D+01 0.3272304D+00 0.1030724D+00
EXPONENTS  0.8000000D+00 0.8000000D+00 0.8000000D+00 0.3406134D+02 0.5123575D+01
EXPONENTS  0.1164663D+01 0.3272304D+00 0.1030724D+00 0.8000000D+00 0.8000000D+00
EXPONENTS  0.8000000D+00 0.3406134D+02 0.5123575D+01 0.1164663D+01 0.3272304D+00
EXPONENTS  0.1030724D+00 0.8000000D+00 0.8000000D+00 0.8000000D+00 0.3406134D+02
EXPONENTS  0.5123575D+01 0.1164663D+01 0.3272304D+00 0.1030724D+00 0.8000000D+00
EXPONENTS  0.8000000D+00 0.8000000D+00 0.3406134D+02 0.5123575D+01 0.1164663D+01
EXPONENTS  0.3272304D+00 0.1030724D+00 0.8000000D+00 0.8000000D+00 0.8000000D+00
EXPONENTS  0.3406134D+02 0.5123575D+01 0.1164663D+01 0.3272304D+00 0.1030724D+00
EXPONENTS  0.8000000D+00 0.8000000D+00 0.8000000D+00 0.3406134D+02 0.5123575D+01
EXPONENTS  0.1164663D+01 0.3272304D+00 0.1030724D+00 0.8000000D+00 0.8000000D+00
EXPONENTS  0.8000000D+00 0.3406134D+02 0.5123575D+01 0.1164663D+01 0.3272304D+00
EXPONENTS  0.1030724D+00 0.8000000D+00 0.8000000D+00 0.8000000D+00 0.3406134D+02
EXPONENTS  0.5123575D+01 0.1164663D+01 0.3272304D+00 0.1030724D+00 0.8000000D+00
EXPONENTS  0.8000000D+00 0.8000000D+00
MO    1     MO 0.0        OCC NO =    2.0000000  ORB. ENERGY =  -11.058701
 -0.13024599D-03 -0.24309037D-03 -0.41489028D-03 -0.64478092D-03 -0.86363847D-03
 -0.88714377D-03 -0.95366026D-03 -0.28259716D-03  0.26820186D-03  0.35395218D-03
  0.10185905D-03 -0.96945902D-03 -0.10347666D-02 -0.90618481D-03 -0.57224441D-03
  0.11107559D-02  0.11855820D-02  0.10382596D-02  0.65564801D-03 -0.17584721D-12
 -0.18769315D-12 -0.16437010D-12 -0.10379767D-12  0.90033087D-04 -0.18578580D-03
  0.41347862D-12 -0.21769542D-04 -0.50572060D-05  0.26099879D-12  0.37349721D-03
 -0.59144212D-03  0.21794490D-03  0.58856270D-03 -0.76406538D-13  0.16052705D-12
 -0.66151850D-04  0.99171116D-04 -0.33019267D-04  0.12482732D-03  0.15907947D-12
  0.15776734D-12 -0.78575951D-04 -0.58900258D-04  0.27132398D-14  0.20605768D-03
  0.23845195D-04  0.19442665D-13  0.29670177D-04  0.15285558D-03 -0.27582384D-13
 -0.11691488D-12  0.79401992D-04  0.14819542D-03  0.25292997D-03  0.39307842D-03
  0.52650076D-03  0.54083032D-03  0.67564251D-03  0.20021245D-03 -0.20486010D-03
 -0.54598232D-03 -0.92019572D-04  0.23819988D-03  0.25424621D-03  0.22265316D-03
  0.14060269D-03 -0.11120455D-02 -0.11869584D-02 -0.10394650D-02 -0.65640918D-03
 -0.74830776D-12 -0.79871749D-12 -0.69946755D-12 -0.44170504D-12  0.43577463D-04
 -0.62027979D-03  0.35000449D-12  0.98975166D-04 -0.14682589D-03 -0.36289242D-12
  0.86380408D-04 -0.10005210D-03  0.13671695D-04 -0.10785879D-03  0.46252519D-12
  0.55890997D-12  0.75034499D-04 -0.11184037D-03  0.36805867D-04 -0.10920626D-03
 -0.16486385D-12 -0.22544454D-12  0.21344547D-04 -0.54944022D-04 -0.14325576D-13
 -0.88696623D-04  0.66581192D-04  0.69752940D-13  0.24662981D-04  0.98250875D-04
 -0.26776211D-13 -0.16622923D-12  0.72519534D-03  0.13535004D-02  0.23100634D-02
  0.35900691D-02  0.48086438D-02  0.49395188D-02  0.71073079D-02  0.21061012D-02
 -0.35065751D-02 -0.17165388D-02 -0.40128612D-03 -0.66064724D-04 -0.70515173D-04
 -0.61752842D-04 -0.38996150D-04 -0.16684117D-01 -0.17808042D-01 -0.15595186D-01
 -0.98481655D-02  0.41694720D-12  0.44503484D-12  0.38973408D-12  0.24611221D-12
  0.15413537D-03 -0.34145243D-02 -0.55817943D-12  0.14447127D-04 -0.43521238D-03
 -0.14065337D-12  0.10749213D-02 -0.21932260D-02  0.11183047D-02  0.10398089D-03
  0.74691668D-12  0.80162604D-12  0.36507417D-03 -0.54486507D-03  0.17979089D-03
 -0.17618133D-03 -0.53221344D-12 -0.77614051D-12  0.17160912D-05 -0.42726796D-03
  0.12505495D-12 -0.55294410D-04  0.60900139D-03  0.45911907D-13  0.50146136D-04
  0.67280249D-03 -0.42107675D-12 -0.47104547D-12 -0.21301645D-04 -0.39757267D-04
 -0.67855029D-04 -0.10545349D-03 -0.14124750D-03 -0.14509177D-03 -0.17154160D-03
 -0.50832744D-04  0.73076645D-04  0.26225452D-04 -0.16705304D-03 -0.37431163D-03
 -0.39952712D-03 -0.34988123D-03 -0.22094563D-03  0.15866300D-03  0.16935133D-03
  0.14830745D-03  0.93654308D-04 -0.90836562D-13 -0.96955764D-13 -0.84907883D-13
 -0.53618269D-13 -0.29016131D-04  0.35929318D-04  0.30923290D-12  0.22044244D-04
  0.61649617D-05  0.23299692D-12  0.44324492D-04 -0.54681279D-04  0.10356787D-04
  0.66296758D-04  0.56009670D-13 -0.46535603D-13 -0.12730038D-04  0.84173643D-05
  0.43126737D-05  0.28361417D-05  0.29460038D-12  0.16867407D-12 -0.18989183D-05
  0.58696601D-05  0.34376206D-13 -0.33368536D-05 -0.15341514D-04 -0.33971448D-13
  0.90336085D-05 -0.22674660D-05 -0.69157170D-13  0.35949797D-12  0.25820614D+00
  0.48191445D+00  0.82249915D+00  0.12782458D+01  0.17121199D+01  0.17587180D+01
  0.11621848D+01  0.34438902D+00 -0.77407815D-02 -0.11923496D-01  0.13306820D-02
 -0.64358927D-03 -0.68694464D-03 -0.60158378D-03 -0.37989265D-03 -0.18714305D-04
 -0.19974994D-04 -0.17492869D-04 -0.11046529D-04  0.48484682D-13  0.51750851D-13
  0.45320206D-13  0.28619145D-13  0.35574861D-03 -0.93158115D-04  0.22691543D-11
 -0.33715716D-04 -0.90889797D-04  0.84043416D-13 -0.24620418D-04 -0.13271756D-03
  0.15733798D-03  0.23230809D-03  0.49867859D-12  0.18408079D-11 -0.14247965D-03
 -0.23688097D-04  0.16616775D-03  0.16883939D-03  0.20934890D-11 -0.48026077D-12
  0.17001850D-03  0.33076580D-03  0.98712975D-13 -0.46616098D-04 -0.77579302D-03
  0.69315305D-12 -0.46343940D-03 -0.21650439D-03 -0.98929198D-12  0.10622293D-11
  0.99505319D-05  0.18571615D-04  0.31696783D-04  0.49259965D-04  0.65980241D-04
  0.67775999D-04  0.80653132D-04  0.23899859D-04 -0.40562201D-04 -0.27004428D-04
  0.47916873D-04  0.32135919D-04  0.34300754D-04  0.30038487D-04  0.18968930D-04
 -0.16138664D-03 -0.17225845D-03 -0.15085333D-03 -0.95262000D-04  0.67257120D-13
  0.71787894D-13  0.62867413D-13  0.39699987D-13 -0.10376844D-04 -0.34392020D-04
 -0.29681996D-13  0.29419515D-04 -0.15258266D-04 -0.10791345D-12  0.11549352D-04
 -0.64515804D-05 -0.50977711D-05 -0.37011120D-04  0.10304369D-12  0.13138895D-12
  0.41270933D-06  0.40684422D-06 -0.81955355D-06 -0.18031911D-04 -0.81683239D-13
 -0.55781271D-13  0.52145608D-05  0.21108780D-05  0.35847779D-14 -0.14826492D-04
 -0.27382622D-05  0.38318985D-14 -0.81718980D-06 -0.35943718D-05 -0.14586232D-13
 -0.16199323D-13  0.72700119D-03  0.13568708D-02  0.23158158D-02  0.35990089D-02
  0.48206181D-02  0.49518189D-02  0.71325615D-02  0.21135846D-02 -0.35969706D-02
 -0.15301405D-02 -0.30772616D-03 -0.15234866D-01 -0.16261162D-01 -0.14240524D-01
 -0.89927131D-02  0.68028002D-02  0.72610707D-02  0.63587982D-02  0.40155018D-02
 -0.17398435D-13 -0.18570480D-13 -0.16262882D-13 -0.10269807D-13 -0.26985345D-02
  0.13055479D-02  0.26362127D-12 -0.26532470D-03  0.87801456D-04 -0.27066220D-13
 -0.16538825D-02  0.54002807D-03  0.11138544D-02  0.23788446D-02  0.74635971D-13
  0.15322369D-14 -0.30731033D-03  0.17948218D-03  0.12782815D-03  0.41492067D-03
  0.34104677D-12 -0.14706365D-12 -0.23724283D-03 -0.17978870D-03 -0.10113435D-12
  0.13006849D-03  0.74431658D-03  0.34385472D-12  0.58165999D-03 -0.20495049D-03
 -0.40451674D-13 -0.21486415D-12 -0.53575555D-05 -0.99993105D-05 -0.17066150D-04
 -0.26522502D-04 -0.35525016D-04 -0.36491886D-04 -0.42168999D-04 -0.12495896D-04
  0.15809700D-04  0.21755084D-04 -0.60541202D-04 -0.80462440D-04 -0.85882790D-04
 -0.75210854D-04 -0.47494717D-04  0.44041709D-04  0.47008578D-04  0.41167215D-04
  0.25996583D-04  0.34045805D-14  0.36339300D-14  0.31823719D-14  0.20096282D-14
 -0.13679939D-04  0.15117229D-04 -0.11767109D-13  0.72278619D-05 -0.37422142D-05
  0.32423168D-13  0.86953512D-05 -0.11158571D-04  0.24632195D-05  0.86958324D-05
  0.40160808D-13  0.40473294D-13  0.73971310D-06 -0.21966108D-05  0.14568977D-05
 -0.42068241D-06 -0.69366093D-13 -0.21070478D-13 -0.18212716D-05  0.18146580D-06
 -0.39830213D-14  0.16128103D-05  0.91334628D-06 -0.12778588D-14  0.38510046D-05
 -0.14577437D-05  0.13226923D-13 -0.10114174D-12  0.91901414D-04  0.16586335D-03
  0.24486973D-03  0.13582183D-03  0.58392399D-04  0.17032999D-05 -0.48157180D-04
  0.84363555D-05  0.91901414D-04  0.16586335D-03  0.24486973D-03  0.13582183D-03
  0.58392399D-04  0.17032997D-05 -0.48157180D-04 -0.84363552D-05 -0.20260922D-04
 -0.36566841D-04 -0.53984878D-04 -0.37277540D-04  0.34144333D-05 -0.14513756D-04
 -0.34886950D-04  0.12643325D-04 -0.20260922D-04 -0.36566841D-04 -0.53984877D-04
 -0.37277540D-04  0.34144328D-05 -0.14513756D-04 -0.34886950D-04 -0.12643325D-04
  0.92142569D-04  0.16629858D-03  0.24551228D-03  0.26105563D-03  0.64773179D-04
  0.44071219D-04 -0.40895749D-03  0.64835235D-04  0.92142569D-04  0.16629858D-03
  0.24551228D-03  0.26105563D-03  0.64773179D-04  0.44071219D-04 -0.40895749D-03
 -0.64835235D-04  0.31887105D-05  0.57549734D-05  0.84962640D-05  0.16108425D-04
  0.66797740D-05 -0.98309425D-05  0.23647446D-05 -0.40467547D-06  0.31887105D-05
  0.57549733D-05  0.84962639D-05  0.16108424D-04  0.66797739D-05 -0.98309423D-05
  0.23647448D-05  0.40467592D-06 -0.24774065D-02 -0.44712145D-02 -0.66010069D-02
 -0.38893772D-02 -0.54626995D-03  0.11778035D-02  0.78260927D-03  0.17571855D-02
 -0.24774065D-02 -0.44712145D-02 -0.66010069D-02 -0.38893772D-02 -0.54626995D-03
  0.11778035D-02  0.78260926D-03 -0.17571855D-02 -0.35718544D-05 -0.64464701D-05
 -0.95171442D-05 -0.13243676D-04 -0.15846546D-05 -0.42560388D-05 -0.81771284D-05
  0.51952271D-05 -0.35718543D-05 -0.64464700D-05 -0.95171441D-05 -0.13243676D-04
 -0.15846547D-05 -0.42560388D-05 -0.81771285D-05 -0.51952271D-05  0.12180464D-03
  0.21983258D-03  0.32454636D-03  0.19542024D-03  0.14400388D-03 -0.40726252D-03
  0.13574664D-03  0.14635408D-13  0.10376360D-03  0.18727218D-03  0.27647632D-03
  0.29279932D-03  0.63053060D-04 -0.34359645D-03  0.24680786D-03  0.87865788D-04
  0.10376360D-03  0.18727218D-03  0.27647632D-03  0.29279932D-03  0.63053060D-04
 -0.34359645D-03  0.24680786D-03 -0.87865788D-04 -0.48354430D-05 -0.87269903D-05
 -0.12883954D-04 -0.48866614D-05 -0.63524057D-05 -0.46335314D-05  0.29774025D-05
 -0.22304563D-13  0.53116777D-06  0.95864970D-06  0.14152873D-05  0.42172121D-05
  0.48876736D-05  0.45478176D-07  0.86445272D-06 -0.63130618D-06  0.53116778D-06
  0.95864973D-06  0.14152874D-05  0.42172121D-05  0.48876735D-05  0.45478174D-07
  0.86445269D-06  0.63130613D-06
MO    2     MO 0.0        OCC NO =    2.0000000  ORB. ENERGY =  -11.058701
  0.79401993D-04  0.14819542D-03  0.25292997D-03  0.39307842D-03  0.52650077D-03
  0.54083033D-03  0.67564251D-03  0.20021244D-03 -0.20486009D-03 -0.54598232D-03
 -0.92019629D-04 -0.23819989D-03 -0.25424622D-03 -0.22265317D-03 -0.14060270D-03
  0.11120455D-02  0.11869584D-02  0.10394650D-02  0.65640918D-03 -0.27581765D-12
 -0.29439809D-12 -0.25781571D-12 -0.16280740D-12 -0.43577440D-04  0.62027976D-03
  0.50329504D-12 -0.98975157D-04  0.14682589D-03  0.64638635D-12  0.86380405D-04
 -0.10005210D-03  0.13671698D-04 -0.10785879D-03 -0.14872057D-12  0.12152357D-12
  0.75034491D-04 -0.11184036D-03  0.36805866D-04 -0.10920625D-03  0.47851710D-12
  0.28160506D-12 -0.21344544D-04  0.54944024D-04  0.56980924D-13  0.88696623D-04
 -0.66581197D-04  0.10964645D-12 -0.24662992D-04 -0.98250875D-04 -0.28058922D-12
  0.40745148D-12 -0.13024599D-03 -0.24309037D-03 -0.41489028D-03 -0.64478092D-03
 -0.86363847D-03 -0.88714377D-03 -0.95366026D-03 -0.28259716D-03  0.26820188D-03
  0.35395209D-03  0.10185920D-03  0.96945901D-03  0.10347666D-02  0.90618481D-03
  0.57224441D-03 -0.11107559D-02 -0.11855820D-02 -0.10382596D-02 -0.65564800D-03
 -0.18155633D-11 -0.19378687D-11 -0.16970660D-11 -0.10716760D-11 -0.90033127D-04
  0.18578579D-03  0.12312631D-11  0.21769574D-04  0.50571987D-05 -0.91099645D-12
  0.37349721D-03 -0.59144211D-03  0.21794489D-03  0.58856271D-03  0.10887926D-11
  0.75683568D-12 -0.66151853D-04  0.99171109D-04 -0.33019256D-04  0.12482732D-03
 -0.45926286D-12 -0.34171147D-12  0.78575950D-04  0.58900252D-04 -0.62054612D-13
 -0.20605768D-03 -0.23845183D-04  0.27780247D-12 -0.29670167D-04 -0.15285557D-03
 -0.91638630D-13 -0.27515751D-12 -0.21301645D-04 -0.39757267D-04 -0.67855029D-04
 -0.10545349D-03 -0.14124750D-03 -0.14509177D-03 -0.17154160D-03 -0.50832743D-04
  0.73076638D-04  0.26225465D-04 -0.16705300D-03  0.37431162D-03  0.39952712D-03
  0.34988122D-03  0.22094563D-03 -0.15866300D-03 -0.16935133D-03 -0.14830745D-03
 -0.93654308D-04  0.12239965D-12  0.13064509D-12  0.11441092D-12  0.72249071D-13
  0.29016151D-04 -0.35929334D-04 -0.19484455D-12 -0.22044234D-04 -0.61649733D-05
 -0.31085929D-12  0.44324493D-04 -0.54681287D-04  0.10356793D-04  0.66296772D-04
  0.43063226D-12  0.18806253D-12 -0.12730031D-04  0.84173603D-05  0.43126702D-05
  0.28361288D-05 -0.91041653D-13 -0.78905029D-13  0.18989195D-05 -0.58696621D-05
  0.93206325D-14  0.33368482D-05  0.15341522D-04 -0.61467798D-13 -0.90336068D-05
  0.22674648D-05  0.33505901D-13 -0.59617446D-13  0.72519534D-03  0.13535004D-02
  0.23100634D-02  0.35900691D-02  0.48086438D-02  0.49395187D-02  0.71073080D-02
  0.21061012D-02 -0.35065752D-02 -0.17165386D-02 -0.40128637D-03  0.66064765D-04
  0.70515216D-04  0.61752880D-04  0.38996174D-04  0.16684117D-01  0.17808042D-01
  0.15595186D-01  0.98481656D-02 -0.24268792D-12 -0.25903658D-12 -0.22684827D-12
 -0.14325186D-12 -0.15413543D-03  0.34145242D-02  0.10091205D-11 -0.14447104D-04
  0.43521238D-03  0.53784585D-12  0.10749212D-02 -0.21932260D-02  0.11183047D-02
  0.10398088D-03 -0.25030035D-12  0.69672869D-13  0.36507418D-03 -0.54486504D-03
  0.17979087D-03 -0.17618135D-03  0.85924466D-12 -0.15379720D-12 -0.17160967D-05
  0.42726795D-03  0.56251512D-14  0.55294421D-04 -0.60900139D-03 -0.20297772D-12
 -0.50146131D-04 -0.67280245D-03  0.18610227D-12  0.53001459D-12  0.99505319D-05
  0.18571615D-04  0.31696783D-04  0.49259965D-04  0.65980242D-04  0.67775999D-04
  0.80653131D-04  0.23899859D-04 -0.40562201D-04 -0.27004423D-04  0.47916874D-04
 -0.32135922D-04 -0.34300757D-04 -0.30038489D-04 -0.18968931D-04  0.16138665D-03
  0.17225845D-03  0.15085334D-03  0.95262001D-04 -0.90932163D-14 -0.97057805D-14
 -0.84997244D-14 -0.53674700D-14  0.10376851D-04  0.34392011D-04  0.59514767D-13
 -0.29419518D-04  0.15258266D-04  0.10132714D-12  0.11549353D-04 -0.64515802D-05
 -0.50977724D-05 -0.37011125D-04  0.19531353D-12  0.11436975D-12  0.41270561D-06
  0.40684740D-06 -0.81955301D-06 -0.18031908D-04 -0.97213270D-13 -0.11799499D-12
 -0.52145608D-05 -0.21108800D-05 -0.16523609D-13  0.14826493D-04  0.27382650D-05
 -0.29346905D-13  0.81718980D-06  0.35943750D-05  0.78917732D-13 -0.12234423D-12
  0.25820614D+00  0.48191445D+00  0.82249915D+00  0.12782458D+01  0.17121199D+01
  0.17587180D+01  0.11621848D+01  0.34438902D+00 -0.77407815D-02 -0.11923496D-01
  0.13306821D-02  0.64358927D-03  0.68694464D-03  0.60158378D-03  0.37989266D-03
  0.18714293D-04  0.19974981D-04  0.17492857D-04  0.11046521D-04  0.65274038D-12
  0.69671222D-12  0.61013762D-12  0.38529430D-12 -0.35574857D-03  0.93158050D-04
  0.36840094D-11  0.33715722D-04  0.90889811D-04 -0.27744812D-12 -0.24620403D-04
 -0.13271757D-03  0.15733798D-03  0.23230809D-03 -0.22432876D-11 -0.47090465D-13
 -0.14247963D-03 -0.23688112D-04  0.16616775D-03  0.16883936D-03 -0.21182265D-11
 -0.29874797D-11 -0.17001850D-03 -0.33076581D-03  0.16436480D-13  0.46616096D-04
  0.77579301D-03  0.40414849D-12  0.46343941D-03  0.21650441D-03 -0.45345793D-12
  0.40440620D-11 -0.53575555D-05 -0.99993105D-05 -0.17066150D-04 -0.26522501D-04
 -0.35525016D-04 -0.36491886D-04 -0.42168999D-04 -0.12495896D-04  0.15809698D-04
  0.21755089D-04 -0.60541204D-04  0.80462441D-04  0.85882791D-04  0.75210855D-04
  0.47494717D-04 -0.44041708D-04 -0.47008576D-04 -0.41167214D-04 -0.25996582D-04
  0.74617223D-14  0.79643810D-14  0.69747140D-14  0.44044449D-14  0.13679944D-04