 F3-, opt CCSD, base Def2-TZVPPD
GAUSSIAN             14 MOL ORBITALS    183 PRIMITIVES        3 NUCLEI
  F    1    (CENTRE  1)   0.00000000  0.00000000  3.19987326  CHARGE =  9.0
  F    2    (CENTRE  2)   0.00000000  0.00000000  0.00000000  CHARGE =  9.0
  F    3    (CENTRE  3)   0.00000000  0.00000000 -3.19987326  CHARGE =  9.0
CENTRE ASSIGNMENTS    1  1  1  1  1  1  1  1  1  1  1  1  1  1  1  1  1  1  1  1
CENTRE ASSIGNMENTS    1  1  1  1  1  1  1  1  1  1  1  1  1  1  1  1  1  1  1  1
CENTRE ASSIGNMENTS    1  1  1  1  1  1  1  1  1  1  1  1  1  1  1  1  1  1  1  1
CENTRE ASSIGNMENTS    1  2  2  2  2  2  2  2  2  2  2  2  2  2  2  2  2  2  2  2
CENTRE ASSIGNMENTS    2  2  2  2  2  2  2  2  2  2  2  2  2  2  2  2  2  2  2  2
CENTRE ASSIGNMENTS    2  2  2  2  2  2  2  2  2  2  2  2  2  2  2  2  2  2  2  2
CENTRE ASSIGNMENTS    2  2  3  3  3  3  3  3  3  3  3  3  3  3  3  3  3  3  3  3
CENTRE ASSIGNMENTS    3  3  3  3  3  3  3  3  3  3  3  3  3  3  3  3  3  3  3  3
CENTRE ASSIGNMENTS    3  3  3  3  3  3  3  3  3  3  3  3  3  3  3  3  3  3  3  3
CENTRE ASSIGNMENTS    3  3  3
TYPE ASSIGNMENTS      1  1  1  1  1  1  1  1  1  1  1  1  2  2  2  2  3  3  3  3
TYPE ASSIGNMENTS      4  4  4  4  2  3  4  2  3  4  2  3  4  5  6  7  8  9 10  5
TYPE ASSIGNMENTS      6  7  8  9 10  5  6  7  8  9 10 11 12 13 17 14 15 18 19 16
TYPE ASSIGNMENTS     20  1  1  1  1  1  1  1  1  1  1  1  1  2  2  2  2  3  3  3
TYPE ASSIGNMENTS      3  4  4  4  4  2  3  4  2  3  4  2  3  4  5  6  7  8  9 10
TYPE ASSIGNMENTS      5  6  7  8  9 10  5  6  7  8  9 10 11 12 13 17 14 15 18 19
TYPE ASSIGNMENTS     16 20  1  1  1  1  1  1  1  1  1  1  1  1  2  2  2  2  3  3
TYPE ASSIGNMENTS      3  3  4  4  4  4  2  3  4  2  3  4  2  3  4  5  6  7  8  9
TYPE ASSIGNMENTS     10  5  6  7  8  9 10  5  6  7  8  9 10 11 12 13 17 14 15 18
TYPE ASSIGNMENTS     19 16 20
EXPONENTS  0.3547910D+05 0.5318473D+04 0.1210481D+04 0.3428552D+03 0.1120194D+03
EXPONENTS  0.4071474D+02 0.1603968D+02 0.6503819D+01 0.1544048D+01 0.6122345D+00
EXPONENTS  0.2402798D+00 0.9091845D-01 0.8023390D+02 0.1859401D+02 0.5686790D+01
EXPONENTS  0.1951101D+01 0.8023390D+02 0.1859401D+02 0.5686790D+01 0.1951101D+01
EXPONENTS  0.8023390D+02 0.1859401D+02 0.5686790D+01 0.1951101D+01 0.6697021D+00
EXPONENTS  0.6697021D+00 0.6697021D+00 0.2165130D+00 0.2165130D+00 0.2165130D+00
EXPONENTS  0.5961328D-01 0.5961328D-01 0.5961328D-01 0.3107000D+01 0.3107000D+01
EXPONENTS  0.3107000D+01 0.3107000D+01 0.3107000D+01 0.3107000D+01 0.8550000D+00
EXPONENTS  0.8550000D+00 0.8550000D+00 0.8550000D+00 0.8550000D+00 0.8550000D+00
EXPONENTS  0.1860839D+00 0.1860839D+00 0.1860839D+00 0.1860839D+00 0.1860839D+00
EXPONENTS  0.1860839D+00 0.1917000D+01 0.1917000D+01 0.1917000D+01 0.1917000D+01
EXPONENTS  0.1917000D+01 0.1917000D+01 0.1917000D+01 0.1917000D+01 0.1917000D+01
EXPONENTS  0.1917000D+01 0.3547910D+05 0.5318473D+04 0.1210481D+04 0.3428552D+03
EXPONENTS  0.1120194D+03 0.4071474D+02 0.1603968D+02 0.6503819D+01 0.1544048D+01
EXPONENTS  0.6122345D+00 0.2402798D+00 0.9091845D-01 0.8023390D+02 0.1859401D+02
EXPONENTS  0.5686790D+01 0.1951101D+01 0.8023390D+02 0.1859401D+02 0.5686790D+01
EXPONENTS  0.1951101D+01 0.8023390D+02 0.1859401D+02 0.5686790D+01 0.1951101D+01
EXPONENTS  0.6697021D+00 0.6697021D+00 0.6697021D+00 0.2165130D+00 0.2165130D+00
EXPONENTS  0.2165130D+00 0.5961328D-01 0.5961328D-01 0.5961328D-01 0.3107000D+01
EXPONENTS  0.3107000D+01 0.3107000D+01 0.3107000D+01 0.3107000D+01 0.3107000D+01
EXPONENTS  0.8550000D+00 0.8550000D+00 0.8550000D+00 0.8550000D+00 0.8550000D+00
EXPONENTS  0.8550000D+00 0.1860839D+00 0.1860839D+00 0.1860839D+00 0.1860839D+00
EXPONENTS  0.1860839D+00 0.1860839D+00 0.1917000D+01 0.1917000D+01 0.1917000D+01
EXPONENTS  0.1917000D+01 0.1917000D+01 0.1917000D+01 0.1917000D+01 0.1917000D+01
EXPONENTS  0.1917000D+01 0.1917000D+01 0.3547910D+05 0.5318473D+04 0.1210481D+04
EXPONENTS  0.3428552D+03 0.1120194D+03 0.4071474D+02 0.1603968D+02 0.6503819D+01
EXPONENTS  0.1544048D+01 0.6122345D+00 0.2402798D+00 0.9091845D-01 0.8023390D+02
EXPONENTS  0.1859401D+02 0.5686790D+01 0.1951101D+01 0.8023390D+02 0.1859401D+02
EXPONENTS  0.5686790D+01 0.1951101D+01 0.8023390D+02 0.1859401D+02 0.5686790D+01
EXPONENTS  0.1951101D+01 0.6697021D+00 0.6697021D+00 0.6697021D+00 0.2165130D+00
EXPONENTS  0.2165130D+00 0.2165130D+00 0.5961328D-01 0.5961328D-01 0.5961328D-01
EXPONENTS  0.3107000D+01 0.3107000D+01 0.3107000D+01 0.3107000D+01 0.3107000D+01
EXPONENTS  0.3107000D+01 0.8550000D+00 0.8550000D+00 0.8550000D+00 0.8550000D+00
EXPONENTS  0.8550000D+00 0.8550000D+00 0.1860839D+00 0.1860839D+00 0.1860839D+00
EXPONENTS  0.1860839D+00 0.1860839D+00 0.1860839D+00 0.1917000D+01 0.1917000D+01
EXPONENTS  0.1917000D+01 0.1917000D+01 0.1917000D+01 0.1917000D+01 0.1917000D+01
EXPONENTS  0.1917000D+01 0.1917000D+01 0.1917000D+01
MO    1     MO 0.0        OCC NO =    2.0000000  ORB. ENERGY =  -26.236108
  0.75586115D-04  0.14115306D-03  0.24155705D-03  0.37899720D-03  0.52174342D-03
  0.56847432D-03  0.56819574D-03  0.18307863D-03 -0.29714882D-03  0.52176999D-03
 -0.80125170D-03 -0.20996342D-03  0.00000000D+00  0.00000000D+00  0.00000000D+00
  0.00000000D+00  0.00000000D+00  0.00000000D+00  0.00000000D+00  0.00000000D+00
  0.97285108D-04  0.10881929D-03  0.94228717D-04  0.53052913D-04  0.00000000D+00
  0.00000000D+00 -0.14283737D-03  0.00000000D+00  0.00000000D+00  0.50227855D-03
  0.00000000D+00  0.00000000D+00  0.15946672D-04  0.32176289D-04  0.32176289D-04
 -0.64352579D-04  0.00000000D+00  0.00000000D+00  0.00000000D+00  0.55989944D-05
  0.55989944D-05 -0.11197989D-04  0.00000000D+00  0.00000000D+00  0.00000000D+00
  0.24883100D-04  0.24883100D-04 -0.49766200D-04  0.00000000D+00  0.00000000D+00
  0.00000000D+00  0.00000000D+00  0.00000000D+00 -0.28226567D-03  0.00000000D+00
  0.00000000D+00  0.42339850D-03  0.00000000D+00  0.00000000D+00  0.42339850D-03
  0.00000000D+00  0.44086402D+00  0.82329021D+00  0.14089071D+01  0.22105414D+01
  0.30431238D+01  0.33156867D+01  0.23553882D+01  0.75893079D+00  0.22253202D-01
 -0.47711819D-02  0.17267568D-02  0.51571524D-03  0.00000000D+00  0.00000000D+00
  0.00000000D+00  0.00000000D+00  0.00000000D+00  0.00000000D+00  0.00000000D+00
  0.00000000D+00  0.00000000D+00  0.00000000D+00  0.00000000D+00  0.00000000D+00
  0.00000000D+00  0.00000000D+00  0.00000000D+00  0.00000000D+00  0.00000000D+00
  0.00000000D+00  0.00000000D+00  0.00000000D+00  0.00000000D+00  0.16943649D-02
  0.16943649D-02 -0.33887299D-02  0.00000000D+00  0.00000000D+00  0.00000000D+00
  0.14769722D-03  0.14769722D-03 -0.29539445D-03  0.00000000D+00  0.00000000D+00
  0.00000000D+00 -0.12567493D-03 -0.12567493D-03  0.25134985D-03  0.00000000D+00
  0.00000000D+00  0.00000000D+00  0.00000000D+00  0.00000000D+00  0.00000000D+00
  0.00000000D+00  0.00000000D+00  0.00000000D+00  0.00000000D+00  0.00000000D+00
  0.00000000D+00  0.00000000D+00  0.75586115D-04  0.14115306D-03  0.24155705D-03
  0.37899720D-03  0.52174342D-03  0.56847432D-03  0.56819574D-03  0.18307863D-03
 -0.29714882D-03  0.52176999D-03 -0.80125170D-03 -0.20996342D-03  0.00000000D+00
  0.00000000D+00  0.00000000D+00  0.00000000D+00  0.00000000D+00  0.00000000D+00
  0.00000000D+00  0.00000000D+00 -0.97285108D-04 -0.10881929D-03 -0.94228717D-04
 -0.53052913D-04  0.00000000D+00  0.00000000D+00  0.14283737D-03  0.00000000D+00
  0.00000000D+00 -0.50227855D-03  0.00000000D+00  0.00000000D+00 -0.15946672D-04
  0.32176289D-04  0.32176289D-04 -0.64352579D-04  0.00000000D+00  0.00000000D+00
  0.00000000D+00  0.55989944D-05  0.55989944D-05 -0.11197989D-04  0.00000000D+00
  0.00000000D+00  0.00000000D+00  0.24883100D-04  0.24883100D-04 -0.49766200D-04
  0.00000000D+00  0.00000000D+00  0.00000000D+00  0.00000000D+00  0.00000000D+00
  0.28226567D-03  0.00000000D+00  0.00000000D+00 -0.42339850D-03  0.00000000D+00
  0.00000000D+00 -0.42339850D-03  0.00000000D+00
MO    2     MO 0.0        OCC NO =    2.0000000  ORB. ENERGY =  -26.012561
  0.31167653D+00  0.58203940D+00  0.99605148D+00  0.15627808D+01  0.21513895D+01
  0.23440827D+01  0.16652360D+01  0.53655652D+00  0.15799308D-01 -0.29294236D-02
  0.98087027D-03  0.29617555D-05  0.00000000D+00  0.00000000D+00  0.00000000D+00
  0.00000000D+00  0.00000000D+00  0.00000000D+00  0.00000000D+00  0.00000000D+00
 -0.12310702D-02 -0.13770267D-02 -0.11923939D-02 -0.67134490D-03  0.00000000D+00
  0.00000000D+00  0.24344631D-03  0.00000000D+00  0.00000000D+00 -0.24475646D-03
  0.00000000D+00  0.00000000D+00 -0.40332846D-05  0.37760005D-03  0.37760005D-03
 -0.75520011D-03  0.00000000D+00  0.00000000D+00  0.00000000D+00  0.16152020D-04
  0.16152020D-04 -0.32304040D-04  0.00000000D+00  0.00000000D+00  0.00000000D+00
 -0.14364001D-04 -0.14364001D-04  0.28728001D-04  0.00000000D+00  0.00000000D+00
  0.00000000D+00  0.00000000D+00  0.00000000D+00 -0.64289647D-04  0.00000000D+00
  0.00000000D+00  0.96434470D-04  0.00000000D+00  0.00000000D+00  0.96434470D-04
  0.00000000D+00 -0.12269293D-03 -0.22912255D-03 -0.39210036D-03 -0.61519604D-03
 -0.84690462D-03 -0.92275918D-03 -0.41655419D-03 -0.13421813D-03 -0.40304654D-03
  0.52934469D-03 -0.49507196D-03 -0.19853961D-03  0.00000000D+00  0.00000000D+00
  0.00000000D+00  0.00000000D+00  0.00000000D+00  0.00000000D+00  0.00000000D+00
  0.00000000D+00  0.00000000D+00  0.00000000D+00  0.00000000D+00  0.00000000D+00
  0.00000000D+00  0.00000000D+00  0.00000000D+00  0.00000000D+00  0.00000000D+00
  0.00000000D+00  0.00000000D+00  0.00000000D+00  0.00000000D+00  0.33420613D-03
  0.33420613D-03 -0.66841226D-03  0.00000000D+00  0.00000000D+00  0.00000000D+00
 -0.10537791D-03 -0.10537791D-03  0.21075581D-03  0.00000000D+00  0.00000000D+00
  0.00000000D+00  0.47071282D-04  0.47071282D-04 -0.94142564D-04  0.00000000D+00
  0.00000000D+00  0.00000000D+00  0.00000000D+00  0.00000000D+00  0.00000000D+00
  0.00000000D+00  0.00000000D+00  0.00000000D+00  0.00000000D+00  0.00000000D+00
  0.00000000D+00  0.00000000D+00  0.31167653D+00  0.58203940D+00  0.99605148D+00
  0.15627808D+01  0.21513895D+01  0.23440827D+01  0.16652360D+01  0.53655652D+00
  0.15799308D-01 -0.29294236D-02  0.98087027D-03  0.29617555D-05  0.00000000D+00
  0.00000000D+00  0.00000000D+00  0.00000000D+00  0.00000000D+00  0.00000000D+00
  0.00000000D+00  0.00000000D+00  0.12310702D-02  0.13770267D-02  0.11923939D-02
  0.67134490D-03  0.00000000D+00  0.00000000D+00 -0.24344631D-03  0.00000000D+00
  0.00000000D+00  0.24475646D-03  0.00000000D+00  0.00000000D+00  0.40332846D-05
  0.37760005D-03  0.37760005D-03 -0.75520011D-03  0.00000000D+00  0.00000000D+00
  0.00000000D+00  0.16152020D-04  0.16152020D-04 -0.32304040D-04  0.00000000D+00
  0.00000000D+00  0.00000000D+00 -0.14364001D-04 -0.14364001D-04  0.28728001D-04
  0.00000000D+00  0.00000000D+00  0.00000000D+00  0.00000000D+00  0.00000000D+00
  0.64289647D-04  0.00000000D+00  0.00000000D+00 -0.96434470D-04  0.00000000D+00
  0.00000000D+00 -0.96434470D-04  0.00000000D+00
MO    3     MO 0.0        OCC NO =    2.0000000  ORB. ENERGY =  -26.012553
  0.31168058D+00  0.58204696D+00  0.99606442D+00  0.15628011D+01  0.21514175D+01
  0.23441131D+01  0.16651488D+01  0.53652841D+00  0.16012758D-01 -0.32711805D-02
  0.12218179D-02 -0.25171423D-03  0.00000000D+00  0.00000000D+00  0.00000000D+00
  0.00000000D+00  0.00000000D+00  0.00000000D+00  0.00000000D+00  0.00000000D+00
 -0.11640142D-02 -0.13020205D-02 -0.11274446D-02 -0.63477697D-03  0.00000000D+00
  0.00000000D+00  0.25249736D-03  0.00000000D+00  0.00000000D+00 -0.27296510D-03
  0.00000000D+00  0.00000000D+00  0.98767478D-05  0.43711856D-03  0.43711856D-03
 -0.87423712D-03  0.00000000D+00  0.00000000D+00  0.00000000D+00 -0.13850150D-05
 -0.13850150D-05  0.27700300D-05  0.00000000D+00  0.00000000D+00  0.00000000D+00
 -0.22375591D-04 -0.22375591D-04  0.44751182D-04  0.00000000D+00  0.00000000D+00
  0.00000000D+00  0.00000000D+00  0.00000000D+00 -0.11005005D-03  0.00000000D+00
  0.00000000D+00  0.16507508D-03  0.00000000D+00  0.00000000D+00  0.16507508D-03
  0.00000000D+00  0.00000000D+00  0.00000000D+00  0.00000000D+00  0.00000000D+00
  0.00000000D+00  0.00000000D+00  0.00000000D+00  0.00000000D+00  0.00000000D+00
  0.00000000D+00  0.00000000D+00  0.00000000D+00  0.00000000D+00  0.00000000D+00
  0.00000000D+00  0.00000000D+00  0.00000000D+00  0.00000000D+00  0.00000000D+00
  0.00000000D+00 -0.24828753D-03 -0.27772467D-03 -0.24048712D-03 -0.13539973D-03
  0.00000000D+00  0.00000000D+00  0.28111290D-03  0.00000000D+00  0.00000000D+00
 -0.53883661D-03  0.00000000D+00  0.00000000D+00  0.65781717D-04  0.00000000D+00
  0.00000000D+00  0.00000000D+00  0.00000000D+00  0.00000000D+00  0.00000000D+00
  0.00000000D+00  0.00000000D+00  0.00000000D+00  0.00000000D+00  0.00000000D+00
  0.00000000D+00  0.00000000D+00  0.00000000D+00  0.00000000D+00  0.00000000D+00
  0.00000000D+00  0.00000000D+00  0.00000000D+00  0.00000000D+00  0.37475315D-03
  0.00000000D+00  0.00000000D+00 -0.56212972D-03  0.00000000D+00  0.00000000D+00
 -0.56212972D-03  0.00000000D+00 -0.31168058D+00 -0.58204696D+00 -0.99606442D+00
 -0.15628011D+01 -0.21514175D+01 -0.23441131D+01 -0.16651488D+01 -0.53652841D+00
 -0.16012758D-01  0.32711805D-02 -0.12218179D-02  0.25171423D-03  0.00000000D+00
  0.00000000D+00  0.00000000D+00  0.00000000D+00  0.00000000D+00  0.00000000D+00
  0.00000000D+00  0.00000000D+00 -0.11640142D-02 -0.13020205D-02 -0.11274446D-02
 -0.63477697D-03  0.00000000D+00  0.00000000D+00  0.25249736D-03  0.00000000D+00
  0.00000000D+00 -0.27296510D-03  0.00000000D+00  0.00000000D+00  0.98767478D-05
 -0.43711856D-03 -0.43711856D-03  0.87423712D-03  0.00000000D+00  0.00000000D+00
  0.00000000D+00  0.13850150D-05  0.13850150D-05 -0.27700300D-05  0.00000000D+00
  0.00000000D+00  0.00000000D+00  0.22375591D-04  0.22375591D-04 -0.44751182D-04
  0.00000000D+00  0.00000000D+00  0.00000000D+00  0.00000000D+00  0.00000000D+00
 -0.11005005D-03  0.00000000D+00  0.00000000D+00  0.16507508D-03  0.00000000D+00
  0.00000000D+00  0.16507508D-03  0.00000000D+00
MO    4     MO 0.0        OCC NO =    2.0000000  ORB. ENERGY =   -1.427194
 -0.28197910D-01 -0.52658103D-01 -0.90114485D-01 -0.14138746D+00 -0.19463990D+00
 -0.21207318D+00 -0.24448274D+00 -0.78774905D-01  0.91632919D-01  0.68172982D-01
  0.11411771D-01 -0.15348835D-03  0.00000000D+00  0.00000000D+00  0.00000000D+00
  0.00000000D+00  0.00000000D+00  0.00000000D+00  0.00000000D+00  0.00000000D+00
 -0.96761574D-01 -0.10823369D+00 -0.93721631D-01 -0.52767412D-01  0.00000000D+00
  0.00000000D+00 -0.20253010D-01  0.00000000D+00  0.00000000D+00  0.85573824D-04
  0.00000000D+00  0.00000000D+00  0.25744549D-04 -0.45027583D-02 -0.45027583D-02
  0.90055167D-02  0.00000000D+00  0.00000000D+00  0.00000000D+00 -0.27167134D-02
 -0.27167134D-02  0.54334269D-02  0.00000000D+00  0.00000000D+00  0.00000000D+00
  0.79236757D-04  0.79236757D-04 -0.15847351D-03  0.00000000D+00  0.00000000D+00
  0.00000000D+00  0.00000000D+00  0.00000000D+00 -0.56592774D-02  0.00000000D+00
  0.00000000D+00  0.84889160D-02  0.00000000D+00  0.00000000D+00  0.84889160D-02
  0.00000000D+00 -0.10022549D+00 -0.18716579D+00 -0.32029921D+00 -0.50254177D+00
 -0.69182004D+00 -0.75378416D+00 -0.87440946D+00 -0.28174391D+00  0.34729467D+00
  0.23931766D+00  0.44699774D-01  0.77839856D-03  0.00000000D+00  0.00000000D+00
  0.00000000D+00  0.00000000D+00  0.00000000D+00  0.00000000D+00  0.00000000D+00
  0.00000000D+00  0.00000000D+00  0.00000000D+00  0.00000000D+00  0.00000000D+00
  0.00000000D+00  0.00000000D+00  0.00000000D+00  0.00000000D+00  0.00000000D+00
  0.00000000D+00  0.00000000D+00  0.00000000D+00  0.00000000D+00  0.35589553D-02
  0.35589553D-02 -0.71179106D-02  0.00000000D+00  0.00000000D+00  0.00000000D+00
 -0.17982641D-02 -0.17982641D-02  0.35965283D-02  0.00000000D+00  0.00000000D+00
  0.00000000D+00 -0.90774764D-04 -0.90774764D-04  0.18154953D-03  0.00000000D+00
  0.00000000D+00  0.00000000D+00  0.00000000D+00  0.00000000D+00  0.00000000D+00
  0.00000000D+00  0.00000000D+00  0.00000000D+00  0.00000000D+00  0.00000000D+00
  0.00000000D+00  0.00000000D+00 -0.28197910D-01 -0.52658103D-01 -0.90114485D-01
 -0.14138746D+00 -0.19463990D+00 -0.21207318D+00 -0.24448274D+00 -0.78774905D-01
  0.91632919D-01  0.68172982D-01  0.11411771D-01 -0.15348835D-03  0.00000000D+00
  0.00000000D+00  0.00000000D+00  0.00000000D+00  0.00000000D+00  0.00000000D+00
  0.00000000D+00  0.00000000D+00  0.96761574D-01  0.10823369D+00  0.93721631D-01
  0.52767412D-01  0.00000000D+00  0.00000000D+00  0.20253010D-01  0.00000000D+00
  0.00000000D+00 -0.85573824D-04  0.00000000D+00  0.00000000D+00 -0.25744549D-04
 -0.45027583D-02 -0.45027583D-02  0.90055167D-02  0.00000000D+00  0.00000000D+00
  0.00000000D+00 -0.27167134D-02 -0.27167134D-02  0.54334269D-02  0.00000000D+00
  0.00000000D+00  0.00000000D+00  0.79236757D-04  0.79236757D-04 -0.15847351D-03
  0.00000000D+00  0.00000000D+00  0.00000000D+00  0.00000000D+00  0.00000000D+00
  0.56592774D-02  0.00000000D+00  0.00000000D+00 -0.84889160D-02  0.00000000D+00
  0.00000000D+00 -0.84889160D-02  0.00000000D+00
MO    5     MO 0.0        OCC NO =    2.0000000  ORB. ENERGY =   -1.253970
 -0.75716130D-01 -0.14139586D+00 -0.24197255D+00 -0.37964912D+00 -0.52264087D+00
 -0.56945215D+00 -0.65921254D+00 -0.21240520D+00  0.25428082D+00  0.17957648D+00
  0.41473131D-01  0.26639898D-03  0.00000000D+00  0.00000000D+00  0.00000000D+00
  0.00000000D+00  0.00000000D+00  0.00000000D+00  0.00000000D+00  0.00000000D+00
 -0.21466169D-01 -0.24011213D-01 -0.20791770D-01 -0.11706240D-01  0.00000000D+00
  0.00000000D+00 -0.84250306D-02  0.00000000D+00  0.00000000D+00 -0.92274315D-03
  0.00000000D+00  0.00000000D+00  0.61062040D-04  0.10917707D-02  0.10917707D-02
 -0.21835415D-02  0.00000000D+00  0.00000000D+00  0.00000000D+00 -0.20419248D-02
 -0.20419248D-02  0.40838497D-02  0.00000000D+00  0.00000000D+00  0.00000000D+00
 -0.44882150D-04 -0.44882150D-04  0.89764299D-04  0.00000000D+00  0.00000000D+00
  0.00000000D+00  0.00000000D+00  0.00000000D+00 -0.40422890D-02  0.00000000D+00
  0.00000000D+00  0.60634336D-02  0.00000000D+00  0.00000000D+00  0.60634336D-02
  0.00000000D+00  0.00000000D+00  0.00000000D+00  0.00000000D+00  0.00000000D+00
  0.00000000D+00  0.00000000D+00  0.00000000D+00  0.00000000D+00  0.00000000D+00
  0.00000000D+00  0.00000000D+00  0.00000000D+00  0.00000000D+00  0.00000000D+00
  0.00000000D+00  0.00000000D+00  0.00000000D+00  0.00000000D+00  0.00000000D+00
  0.00000000D+00  0.19306449D+00  0.21595435D+00  0.18699902D+00  0.10528470D+00
  0.00000000D+00  0.00000000D+00  0.40245282D-01  0.00000000D+00  0.00000000D+00
  0.69734324D-03  0.00000000D+00  0.00000000D+00  0.18490116D-03  0.00000000D+00
  0.00000000D+00  0.00000000D+00  0.00000000D+00  0.00000000D+00  0.00000000D+00
  0.00000000D+00  0.00000000D+00  0.00000000D+00  0.00000000D+00  0.00000000D+00
  0.00000000D+00  0.00000000D+00  0.00000000D+00  0.00000000D+00  0.00000000D+00
  0.00000000D+00  0.00000000D+00  0.00000000D+00  0.00000000D+00  0.12408254D-01
  0.00000000D+00  0.00000000D+00 -0.18612382D-01  0.00000000D+00  0.00000000D+00
 -0.18612382D-01  0.00000000D+00  0.75716130D-01  0.14139586D+00  0.24197255D+00
  0.37964912D+00  0.52264087D+00  0.56945215D+00  0.65921254D+00  0.21240520D+00
 -0.25428082D+00 -0.17957648D+00 -0.41473131D-01 -0.26639898D-03  0.00000000D+00
  0.00000000D+00  0.00000000D+00  0.00000000D+00  0.00000000D+00  0.00000000D+00
  0.00000000D+00  0.00000000D+00 -0.21466169D-01 -0.24011213D-01 -0.20791770D-01
 -0.11706240D-01  0.00000000D+00  0.00000000D+00 -0.84250306D-02  0.00000000D+00
  0.00000000D+00 -0.92274315D-03  0.00000000D+00  0.00000000D+00  0.61062040D-04
 -0.10917707D-02 -0.10917707D-02  0.21835415D-02  0.00000000D+00  0.00000000D+00
  0.00000000D+00  0.20419248D-02  0.20419248D-02 -0.40838497D-02  0.00000000D+00
  0.00000000D+00  0.00000000D+00  0.44882150D-04  0.44882150D-04 -0.89764299D-04
  0.00000000D+00  0.00000000D+00  0.00000000D+00  0.00000000D+00  0.00000000D+00
 -0.40422890D-02  0.00000000D+00  0.00000000D+00  0.60634336D-02  0.00000000D+00
  0.00000000D+00  0.60634336D-02  0.00000000D+00
MO    6     MO 0.0        OCC NO =    2.0000000  ORB. ENERGY =   -1.204855
 -0.71654995D-01 -0.13381191D+00 -0.22899403D+00 -0.35928613D+00 -0.49460833D+00
 -0.53890882D+00 -0.62449622D+00 -0.20121924D+00  0.24237751D+00  0.17066129D+00
  0.39974191D-01  0.10021091D-02  0.00000000D+00  0.00000000D+00  0.00000000D+00
  0.00000000D+00  0.00000000D+00  0.00000000D+00  0.00000000D+00  0.00000000D+00
  0.57021006D-01  0.63781454D-01  0.55229586D-01  0.31095515D-01  0.00000000D+00
  0.00000000D+00  0.72393639D-02  0.00000000D+00  0.00000000D+00  0.15462321D-03
  0.00000000D+00  0.00000000D+00  0.16539510D-04  0.38655186D-02  0.38655186D-02
 -0.77310372D-02  0.00000000D+00  0.00000000D+00  0.00000000D+00  0.30538708D-05
  0.30538708D-05 -0.61077415D-05  0.00000000D+00  0.00000000D+00  0.00000000D+00
 -0.34600526D-04 -0.34600526D-04  0.69201053D-04  0.00000000D+00  0.00000000D+00
  0.00000000D+00  0.00000000D+00  0.00000000D+00 -0.35258131D-03  0.00000000D+00
  0.00000000D+00  0.52887196D-03  0.00000000D+00  0.00000000D+00  0.52887196D-03
  0.00000000D+00  0.47286082D-01  0.88304252D-01  0.15111620D+00  0.23709768D+00
  0.32639860D+00  0.35563308D+00  0.41489021D+00  0.13368198D+00 -0.17037963D+00
 -0.11442258D+00 -0.25543909D-01 -0.29048803D-03  0.00000000D+00  0.00000000D+00
  0.00000000D+00  0.00000000D+00  0.00000000D+00  0.00000000D+00  0.00000000D+00
  0.00000000D+00  0.00000000D+00  0.00000000D+00  0.00000000D+00  0.00000000D+00
  0.00000000D+00  0.00000000D+00  0.00000000D+00  0.00000000D+00  0.00000000D+00
  0.00000000D+00  0.00000000D+00  0.00000000D+00  0.00000000D+00 -0.92032709D-02
 -0.92032709D-02  0.18406542D-01  0.00000000D+00  0.00000000D+00  0.00000000D+00
 -0.52731679D-02 -0.52731679D-02  0.10546336D-01  0.00000000D+00  0.00000000D+00
  0.00000000D+00 -0.79344866D-04 -0.79344866D-04  0.15868973D-03  0.00000000D+00
  0.00000000D+00  0.00000000D+00  0.00000000D+00  0.00000000D+00  0.00000000D+00
  0.00000000D+00  0.00000000D+00  0.00000000D+00  0.00000000D+00  0.00000000D+00
  0.00000000D+00  0.00000000D+00 -0.71654995D-01 -0.13381191D+00 -0.22899403D+00
 -0.35928613D+00 -0.49460833D+00 -0.53890882D+00 -0.62449622D+00 -0.20121924D+00
  0.24237751D+00  0.17066129D+00  0.39974191D-01  0.10021091D-02  0.00000000D+00
  0.00000000D+00  0.00000000D+00  0.00000000D+00  0.00000000D+00  0.00000000D+00
  0.00000000D+00  0.00000000D+00 -0.57021006D-01 -0.63781454D-01 -0.55229586D-01
 -0.31095515D-01  0.00000000D+00  0.00000000D+00 -0.72393639D-02  0.00000000D+00
  0.00000000D+00 -0.15462321D-03  0.00000000D+00  0.00000000D+00 -0.16539510D-04
  0.38655186D-02  0.38655186D-02 -0.77310372D-02  0.00000000D+00  0.00000000D+00
  0.00000000D+00  0.30538708D-05  0.30538708D-05 -0.61077415D-05  0.00000000D+00
  0.00000000D+00  0.00000000D+00 -0.34600526D-04 -0.34600526D-04  0.69201053D-04
  0.00000000D+00  0.00000000D+00  0.00000000D+00  0.00000000D+00  0.00000000D+00
  0.35258131D-03  0.00000000D+00  0.00000000D+00 -0.52887196D-03  0.00000000D+00
  0.00000000D+00 -0.52887196D-03  0.00000000D+00
MO    7     MO 0.0        OCC NO =    2.0000000  ORB. ENERGY =   -0.534227
  0.00000000D+00  0.00000000D+00  0.00000000D+00  0.00000000D+00  0.00000000D+00
  0.00000000D+00  0.00000000D+00  0.00000000D+00  0.00000000D+00  0.00000000D+00
  0.00000000D+00  0.00000000D+00  0.33327357D+00  0.37278670D+00  0.32280317D+00
  0.18174553D+00  0.00000000D+00  0.00000000D+00  0.00000000D+00  0.00000000D+00
  0.00000000D+00  0.00000000D+00  0.00000000D+00  0.00000000D+00  0.59441964D-01
  0.00000000D+00  0.00000000D+00  0.74929069D-02  0.00000000D+00  0.00000000D+00
  0.14247191D-03  0.00000000D+00  0.00000000D+00  0.00000000D+00  0.00000000D+00
  0.00000000D+00  0.00000000D+00 -0.14441187D-01  0.00000000D+00  0.00000000D+00
  0.00000000D+00  0.00000000D+00  0.00000000D+00 -0.10114269D-01  0.00000000D+00
  0.00000000D+00  0.00000000D+00  0.00000000D+00  0.00000000D+00  0.13391029D-03
  0.00000000D+00 -0.43288739D-02  0.00000000D+00  0.00000000D+00 -0.43288739D-02
  0.00000000D+00  0.00000000D+00  0.17315495D-01  0.00000000D+00  0.00000000D+00
  0.00000000D+00  0.00000000D+00  0.00000000D+00  0.00000000D+00  0.00000000D+00
  0.00000000D+00  0.00000000D+00  0.00000000D+00  0.00000000D+00  0.00000000D+00
  0.00000000D+00  0.00000000D+00  0.00000000D+00  0.21229333D+01  0.23746297D+01
  0.20562374D+01  0.11577085D+01  0.00000000D+00  0.00000000D+00  0.00000000D+00
  0.00000000D+00  0.00000000D+00  0.00000000D+00  0.00000000D+00  0.00000000D+00
  0.36527829D+00  0.00000000D+00  0.00000000D+00  0.45844600D-01  0.00000000D+00
  0.00000000D+00  0.32096815D-03  0.00000000D+00  0.00000000D+00  0.00000000D+00
  0.00000000D+00  0.00000000D+00  0.00000000D+00  0.00000000D+00  0.00000000D+00
  0.00000000D+00  0.00000000D+00  0.00000000D+00  0.00000000D+00  0.00000000D+00
  0.00000000D+00  0.00000000D+00  0.00000000D+00  0.00000000D+00  0.00000000D+00
  0.00000000D+00  0.00000000D+00 -0.14382311D-01  0.00000000D+00  0.00000000D+00
 -0.14382311D-01  0.00000000D+00  0.00000000D+00  0.57529244D-01  0.00000000D+00
  0.00000000D+00  0.00000000D+00  0.00000000D+00  0.00000000D+00  0.00000000D+00
  0.00000000D+00  0.00000000D+00  0.00000000D+00  0.00000000D+00  0.00000000D+00
  0.00000000D+00  0.00000000D+00  0.00000000D+00  0.00000000D+00  0.33327357D+00
  0.37278670D+00  0.32280317D+00  0.18174553D+00  0.00000000D+00  0.00000000D+00
  0.00000000D+00  0.00000000D+00  0.00000000D+00  0.00000000D+00  0.00000000D+00
  0.00000000D+00  0.59441964D-01  0.00000000D+00  0.00000000D+00  0.74929069D-02
  0.00000000D+00  0.00000000D+00  0.14247191D-03  0.00000000D+00  0.00000000D+00
  0.00000000D+00  0.00000000D+00  0.00000000D+00  0.00000000D+00  0.14441187D-01
  0.00000000D+00  0.00000000D+00  0.00000000D+00  0.00000000D+00  0.00000000D+00
  0.10114269D-01  0.00000000D+00  0.00000000D+00  0.00000000D+00  0.00000000D+00
  0.00000000D+00 -0.13391029D-03  0.00000000D+00 -0.43288739D-02  0.00000000D+00
  0.00000000D+00 -0.43288739D-02  0.00000000D+00  0.00000000D+00  0.17315495D-01
  0.00000000D+00  0.00000000D+00  0.00000000D+00
MO    8     MO 0.0        OCC NO =    2.0000000  ORB. ENERGY =   -0.534227
  0.00000000D+00  0.00000000D+00  0.00000000D+00  0.00000000D+00  0.00000000D+00
  0.00000000D+00  0.00000000D+00  0.00000000D+00  0.00000000D+00  0.00000000D+00
  0.00000000D+00  0.00000000D+00  0.00000000D+00  0.00000000D+00  0.00000000D+00
  0.00000000D+00  0.33327357D+00  0.37278670D+00  0.32280317D+00  0.18174553D+00
  0.00000000D+00  0.00000000D+00  0.00000000D+00  0.00000000D+00  0.00000000D+00
  0.59441964D-01  0.00000000D+00  0.00000000D+00  0.74929069D-02  0.00000000D+00
  0.00000000D+00  0.14247191D-03  0.00000000D+00  0.00000000D+00  0.00000000D+00
  0.00000000D+00  0.00000000D+00  0.00000000D+00 -0.14441187D-01  0.00000000D+00
  0.00000000D+00  0.00000000D+00  0.00000000D+00  0.00000000D+00 -0.10114269D-01
  0.00000000D+00  0.00000000D+00  0.00000000D+00  0.00000000D+00  0.00000000D+00
  0.13391029D-03  0.00000000D+00 -0.43288739D-02  0.00000000D+00  0.00000000D+00
 -0.43288739D-02  0.00000000D+00  0.00000000D+00  0.17315495D-01  0.00000000D+00
  0.00000000D+00  0.00000000D+00  0.00000000D+00  0.00000000D+00  0.00000000D+00
  0.00000000D+00  0.00000000D+00  0.00000000D+00  0.00000000D+00  0.00000000D+00
  0.00000000D+00  0.00000000D+00  0.00000000D+00  0.00000000D+00  0.00000000D+00
  0.00000000D+00  0.00000000D+00  0.21229333D+01  0.23746297D+01  0.20562374D+01
  0.11577085D+01  0.00000000D+00  0.00000000D+00  0.00000000D+00  0.00000000D+00
  0.00000000D+00  0.36527829D+00  0.00000000D+00  0.00000000D+00  0.45844600D-01
  0.00000000D+00  0.00000000D+00  0.32096815D-03  0.00000000D+00  0.00000000D+00
  0.00000000D+00  0.00000000D+00  0.00000000D+00  0.00000000D+00  0.00000000D+00
  0.00000000D+00  0.00000000D+00  0.00000000D+00  0.00000000D+00  0.00000000D+00
  0.00000000D+00  0.00000000D+00  0.00000000D+00  0.00000000D+00  0.00000000D+00
  0.00000000D+00  0.00000000D+00  0.00000000D+00 -0.14382311D-01  0.00000000D+00
  0.00000000D+00 -0.14382311D-01  0.00000000D+00  0.00000000D+00  0.57529244D-01
  0.00000000D+00  0.00000000D+00  0.00000000D+00  0.00000000D+00  0.00000000D+00
  0.00000000D+00  0.00000000D+00  0.00000000D+00  0.00000000D+00  0.00000000D+00
  0.00000000D+00  0.00000000D+00  0.00000000D+00  0.00000000D+00  0.00000000D+00
  0.00000000D+00  0.00000000D+00  0.00000000D+00  0.33327357D+00  0.37278670D+00
  0.32280317D+00  0.18174553D+00  0.00000000D+00  0.00000000D+00  0.00000000D+00
  0.00000000D+00  0.00000000D+00  0.59441964D-01  0.00000000D+00  0.00000000D+00
  0.74929069D-02  0.00000000D+00  0.00000000D+00  0.14247191D-03  0.00000000D+00
  0.00000000D+00  0.00000000D+00  0.00000000D+00  0.00000000D+00  0.00000000D+00
  0.14441187D-01  0.00000000D+00  0.00000000D+00  0.00000000D+00  0.00000000D+00
  0.00000000D+00  0.10114269D-01  0.00000000D+00  0.00000000D+00  0.00000000D+00
  0.00000000D+00  0.00000000D+00 -0.13391029D-03  0.00000000D+00 -0.43288739D-02
  0.00000000D+00  0.00000000D+00 -0.43288739D-02  0.00000000D+00  0.00000000D+00
  0.17315495D-01  0.00000000D+00  0.00000000D+00
MO    9     MO 0.0        OCC NO =    2.0000000  ORB. ENERGY =   -0.448359
  0.11148454D-01  0.20819148D-01  0.35628074D-01  0.55899592D-01  0.76953719D-01
  0.83846219D-01  0.99320601D-01  0.32002140D-01 -0.44816363D-01 -0.26926418D-01
 -0.10054487D-01 -0.31958287D-02  0.00000000D+00  0.00000000D+00  0.00000000D+00
  0.00000000D+00  0.00000000D+00  0.00000000D+00  0.00000000D+00  0.00000000D+00
 -0.10393855D+01 -0.11626158D+01 -0.10067313D+01 -0.56681266D+00  0.00000000D+00
  0.00000000D+00 -0.19380538D+00  0.00000000D+00  0.00000000D+00 -0.27724556D-01
  0.00000000D+00  0.00000000D+00 -0.62103684D-03 -0.98465433D-02 -0.98465433D-02
  0.19693087D-01  0.00000000D+00  0.00000000D+00  0.00000000D+00 -0.81974470D-02
 -0.81974470D-02  0.16394894D-01  0.00000000D+00  0.00000000D+00  0.00000000D+00