 FHF-, opt CCSD, base Def2-TZVPPD
GAUSSIAN             10 MOL ORBITALS    142 PRIMITIVES        3 NUCLEI
  F    1    (CENTRE  1)   0.00000000  0.00000000  2.64561659  CHARGE =  9.0
  H    2    (CENTRE  2)   0.00000000  0.00000000  0.00000000  CHARGE =  1.0
  F    3    (CENTRE  3)   0.00000000  0.00000000 -2.64561659  CHARGE =  9.0
CENTRE ASSIGNMENTS    1  1  1  1  1  1  1  1  1  1  1  1  1  1  1  1  1  1  1  1
CENTRE ASSIGNMENTS    1  1  1  1  1  1  1  1  1  1  1  1  1  1  1  1  1  1  1  1
CENTRE ASSIGNMENTS    1  1  1  1  1  1  1  1  1  1  1  1  1  1  1  1  1  1  1  1
CENTRE ASSIGNMENTS    1  2  2  2  2  2  2  2  2  2  2  2  2  2  2  2  2  2  2  2
CENTRE ASSIGNMENTS    2  3  3  3  3  3  3  3  3  3  3  3  3  3  3  3  3  3  3  3
CENTRE ASSIGNMENTS    3  3  3  3  3  3  3  3  3  3  3  3  3  3  3  3  3  3  3  3
CENTRE ASSIGNMENTS    3  3  3  3  3  3  3  3  3  3  3  3  3  3  3  3  3  3  3  3
CENTRE ASSIGNMENTS    3  3
TYPE ASSIGNMENTS      1  1  1  1  1  1  1  1  1  1  1  1  2  2  2  2  3  3  3  3
TYPE ASSIGNMENTS      4  4  4  4  2  3  4  2  3  4  2  3  4  5  6  7  8  9 10  5
TYPE ASSIGNMENTS      6  7  8  9 10  5  6  7  8  9 10 11 12 13 17 14 15 18 19 16
TYPE ASSIGNMENTS     20  1  1  1  1  1  2  3  4  2  3  4  2  3  4  5  6  7  8  9
TYPE ASSIGNMENTS     10  1  1  1  1  1  1  1  1  1  1  1  1  2  2  2  2  3  3  3
TYPE ASSIGNMENTS      3  4  4  4  4  2  3  4  2  3  4  2  3  4  5  6  7  8  9 10
TYPE ASSIGNMENTS      5  6  7  8  9 10  5  6  7  8  9 10 11 12 13 17 14 15 18 19
TYPE ASSIGNMENTS     16 20
EXPONENTS  0.3547910D+05 0.5318473D+04 0.1210481D+04 0.3428552D+03 0.1120194D+03
EXPONENTS  0.4071474D+02 0.1603968D+02 0.6503819D+01 0.1544048D+01 0.6122345D+00
EXPONENTS  0.2402798D+00 0.9091845D-01 0.8023390D+02 0.1859401D+02 0.5686790D+01
EXPONENTS  0.1951101D+01 0.8023390D+02 0.1859401D+02 0.5686790D+01 0.1951101D+01
EXPONENTS  0.8023390D+02 0.1859401D+02 0.5686790D+01 0.1951101D+01 0.6697021D+00
EXPONENTS  0.6697021D+00 0.6697021D+00 0.2165130D+00 0.2165130D+00 0.2165130D+00
EXPONENTS  0.5961328D-01 0.5961328D-01 0.5961328D-01 0.3107000D+01 0.3107000D+01
EXPONENTS  0.3107000D+01 0.3107000D+01 0.3107000D+01 0.3107000D+01 0.8550000D+00
EXPONENTS  0.8550000D+00 0.8550000D+00 0.8550000D+00 0.8550000D+00 0.8550000D+00
EXPONENTS  0.1860839D+00 0.1860839D+00 0.1860839D+00 0.1860839D+00 0.1860839D+00
EXPONENTS  0.1860839D+00 0.1917000D+01 0.1917000D+01 0.1917000D+01 0.1917000D+01
EXPONENTS  0.1917000D+01 0.1917000D+01 0.1917000D+01 0.1917000D+01 0.1917000D+01
EXPONENTS  0.1917000D+01 0.3406134D+02 0.5123575D+01 0.1164663D+01 0.3272304D+00
EXPONENTS  0.1030724D+00 0.1407000D+01 0.1407000D+01 0.1407000D+01 0.3880000D+00
EXPONENTS  0.3880000D+00 0.3880000D+00 0.9577413D-01 0.9577413D-01 0.9577413D-01
EXPONENTS  0.1057000D+01 0.1057000D+01 0.1057000D+01 0.1057000D+01 0.1057000D+01
EXPONENTS  0.1057000D+01 0.3547910D+05 0.5318473D+04 0.1210481D+04 0.3428552D+03
EXPONENTS  0.1120194D+03 0.4071474D+02 0.1603968D+02 0.6503819D+01 0.1544048D+01
EXPONENTS  0.6122345D+00 0.2402798D+00 0.9091845D-01 0.8023390D+02 0.1859401D+02
EXPONENTS  0.5686790D+01 0.1951101D+01 0.8023390D+02 0.1859401D+02 0.5686790D+01
EXPONENTS  0.1951101D+01 0.8023390D+02 0.1859401D+02 0.5686790D+01 0.1951101D+01
EXPONENTS  0.6697021D+00 0.6697021D+00 0.6697021D+00 0.2165130D+00 0.2165130D+00
EXPONENTS  0.2165130D+00 0.5961328D-01 0.5961328D-01 0.5961328D-01 0.3107000D+01
EXPONENTS  0.3107000D+01 0.3107000D+01 0.3107000D+01 0.3107000D+01 0.3107000D+01
EXPONENTS  0.8550000D+00 0.8550000D+00 0.8550000D+00 0.8550000D+00 0.8550000D+00
EXPONENTS  0.8550000D+00 0.1860839D+00 0.1860839D+00 0.1860839D+00 0.1860839D+00
EXPONENTS  0.1860839D+00 0.1860839D+00 0.1917000D+01 0.1917000D+01 0.1917000D+01
EXPONENTS  0.1917000D+01 0.1917000D+01 0.1917000D+01 0.1917000D+01 0.1917000D+01
EXPONENTS  0.1917000D+01 0.1917000D+01
MO    1     MO 0.0        OCC NO =    2.0000000  ORB. ENERGY =  -25.977278
  0.31167121D+00  0.58202947D+00  0.99603448D+00  0.15627542D+01  0.21513528D+01
  0.23440427D+01  0.16651808D+01  0.53653872D+00  0.15829861D-01 -0.28423178D-02
  0.77786465D-03 -0.52014730D-04  0.00000000D+00  0.00000000D+00  0.00000000D+00
  0.00000000D+00  0.00000000D+00  0.00000000D+00  0.00000000D+00  0.00000000D+00
 -0.14495880D-02 -0.16214521D-02 -0.14040465D-02 -0.79051016D-03  0.00000000D+00
  0.00000000D+00  0.27044423D-03  0.00000000D+00  0.00000000D+00 -0.36520827D-04
  0.00000000D+00  0.00000000D+00  0.89402169D-05  0.10237554D-03  0.10237554D-03
 -0.20475107D-03  0.00000000D+00  0.00000000D+00  0.00000000D+00  0.42750301D-04
  0.42750301D-04 -0.85500602D-04  0.00000000D+00  0.00000000D+00  0.00000000D+00
  0.58518658D-05  0.58518658D-05 -0.11703732D-04  0.00000000D+00  0.00000000D+00
  0.00000000D+00  0.00000000D+00  0.00000000D+00  0.23486572D-04  0.00000000D+00
  0.00000000D+00 -0.35229859D-04  0.00000000D+00  0.00000000D+00 -0.35229859D-04
  0.00000000D+00  0.00000000D+00  0.00000000D+00  0.00000000D+00  0.00000000D+00
  0.00000000D+00  0.00000000D+00  0.00000000D+00  0.15861147D-03  0.00000000D+00
  0.00000000D+00  0.13602311D-03  0.00000000D+00  0.00000000D+00 -0.85449870D-04
  0.00000000D+00  0.00000000D+00  0.00000000D+00  0.00000000D+00  0.00000000D+00
  0.00000000D+00 -0.31167121D+00 -0.58202947D+00 -0.99603448D+00 -0.15627542D+01
 -0.21513528D+01 -0.23440427D+01 -0.16651808D+01 -0.53653872D+00 -0.15829861D-01
  0.28423178D-02 -0.77786465D-03  0.52014730D-04  0.00000000D+00  0.00000000D+00
  0.00000000D+00  0.00000000D+00  0.00000000D+00  0.00000000D+00  0.00000000D+00
  0.00000000D+00 -0.14495880D-02 -0.16214521D-02 -0.14040465D-02 -0.79051016D-03
  0.00000000D+00  0.00000000D+00  0.27044423D-03  0.00000000D+00  0.00000000D+00
 -0.36520827D-04  0.00000000D+00  0.00000000D+00  0.89402169D-05 -0.10237554D-03
 -0.10237554D-03  0.20475107D-03  0.00000000D+00  0.00000000D+00  0.00000000D+00
 -0.42750301D-04 -0.42750301D-04  0.85500602D-04  0.00000000D+00  0.00000000D+00
  0.00000000D+00 -0.58518658D-05 -0.58518658D-05  0.11703732D-04  0.00000000D+00
  0.00000000D+00  0.00000000D+00  0.00000000D+00  0.00000000D+00  0.23486572D-04
  0.00000000D+00  0.00000000D+00 -0.35229859D-04  0.00000000D+00  0.00000000D+00
 -0.35229859D-04  0.00000000D+00
MO    2     MO 0.0        OCC NO =    2.0000000  ORB. ENERGY =  -25.977267
  0.31167273D+00  0.58203232D+00  0.99603936D+00  0.15627618D+01  0.21513634D+01
  0.23440541D+01  0.16651627D+01  0.53653289D+00  0.15884824D-01 -0.29106372D-02
  0.76598905D-03  0.46942228D-04  0.00000000D+00  0.00000000D+00  0.00000000D+00
  0.00000000D+00  0.00000000D+00  0.00000000D+00  0.00000000D+00  0.00000000D+00
 -0.16110159D-02 -0.18020190D-02 -0.15604029D-02 -0.87854235D-03  0.00000000D+00
  0.00000000D+00  0.44115818D-03  0.00000000D+00  0.00000000D+00 -0.18847376D-03
  0.00000000D+00  0.00000000D+00 -0.11416415D-04  0.41017275D-04  0.41017275D-04
 -0.82034550D-04  0.00000000D+00  0.00000000D+00  0.00000000D+00  0.71010057D-04
  0.71010057D-04 -0.14202011D-03  0.00000000D+00  0.00000000D+00  0.00000000D+00
 -0.12464796D-04 -0.12464796D-04  0.24929591D-04  0.00000000D+00  0.00000000D+00
  0.00000000D+00  0.00000000D+00  0.00000000D+00  0.11954758D-03  0.00000000D+00
  0.00000000D+00 -0.17932138D-03  0.00000000D+00  0.00000000D+00 -0.17932138D-03
  0.00000000D+00  0.74425467D-06  0.13432282D-05  0.19830537D-05 -0.19502659D-03
 -0.29932538D-03  0.00000000D+00  0.00000000D+00  0.00000000D+00  0.00000000D+00
  0.00000000D+00  0.00000000D+00  0.00000000D+00  0.00000000D+00  0.00000000D+00
 -0.30420456D-03 -0.30420456D-03  0.60840913D-03  0.00000000D+00  0.00000000D+00
  0.00000000D+00  0.31167273D+00  0.58203232D+00  0.99603936D+00  0.15627618D+01
  0.21513634D+01  0.23440541D+01  0.16651627D+01  0.53653289D+00  0.15884824D-01
 -0.29106372D-02  0.76598905D-03  0.46942228D-04  0.00000000D+00  0.00000000D+00
  0.00000000D+00  0.00000000D+00  0.00000000D+00  0.00000000D+00  0.00000000D+00
  0.00000000D+00  0.16110159D-02  0.18020190D-02  0.15604029D-02  0.87854235D-03
  0.00000000D+00  0.00000000D+00 -0.44115818D-03  0.00000000D+00  0.00000000D+00
  0.18847376D-03  0.00000000D+00  0.00000000D+00  0.11416415D-04  0.41017275D-04
  0.41017275D-04 -0.82034550D-04  0.00000000D+00  0.00000000D+00  0.00000000D+00
  0.71010057D-04  0.71010057D-04 -0.14202011D-03  0.00000000D+00  0.00000000D+00
  0.00000000D+00 -0.12464796D-04 -0.12464796D-04  0.24929591D-04  0.00000000D+00
  0.00000000D+00  0.00000000D+00  0.00000000D+00  0.00000000D+00 -0.11954758D-03
  0.00000000D+00  0.00000000D+00  0.17932138D-03  0.00000000D+00  0.00000000D+00
  0.17932138D-03  0.00000000D+00
MO    3     MO 0.0        OCC NO =    2.0000000  ORB. ENERGY =   -1.231248
 -0.75289488D-01 -0.14059913D+00 -0.24060909D+00 -0.37750988D+00 -0.51969591D+00
 -0.56624342D+00 -0.65520699D+00 -0.21111457D+00  0.25142042D+00  0.17899312D+00
  0.40403900D-01  0.14645307D-02  0.00000000D+00  0.00000000D+00  0.00000000D+00
  0.00000000D+00  0.00000000D+00  0.00000000D+00  0.00000000D+00  0.00000000D+00
 -0.32512039D-01 -0.36366688D-01 -0.31490613D-01 -0.17729932D-01  0.00000000D+00
  0.00000000D+00 -0.97816190D-02  0.00000000D+00  0.00000000D+00 -0.66747110D-03
  0.00000000D+00  0.00000000D+00 -0.48790621D-04 -0.11366851D-02 -0.11366851D-02
  0.22733702D-02  0.00000000D+00  0.00000000D+00  0.00000000D+00 -0.18146657D-02
 -0.18146657D-02  0.36293314D-02  0.00000000D+00  0.00000000D+00  0.00000000D+00
  0.13474445D-04  0.13474445D-04 -0.26948889D-04  0.00000000D+00  0.00000000D+00
  0.00000000D+00  0.00000000D+00  0.00000000D+00 -0.33887659D-02  0.00000000D+00
  0.00000000D+00  0.50831489D-02  0.00000000D+00  0.00000000D+00  0.50831489D-02
  0.00000000D+00  0.73409804D-02  0.13248975D-01  0.19559915D-01  0.11693635D-01
 -0.12033559D-02  0.00000000D+00  0.00000000D+00  0.00000000D+00  0.00000000D+00
  0.00000000D+00  0.00000000D+00  0.00000000D+00  0.00000000D+00  0.00000000D+00
 -0.33228330D-02 -0.33228330D-02  0.66456661D-02  0.00000000D+00  0.00000000D+00
  0.00000000D+00 -0.75289488D-01 -0.14059913D+00 -0.24060909D+00 -0.37750988D+00
 -0.51969591D+00 -0.56624342D+00 -0.65520699D+00 -0.21111457D+00  0.25142042D+00
  0.17899312D+00  0.40403900D-01  0.14645307D-02  0.00000000D+00  0.00000000D+00
  0.00000000D+00  0.00000000D+00  0.00000000D+00  0.00000000D+00  0.00000000D+00
  0.00000000D+00  0.32512039D-01  0.36366688D-01  0.31490613D-01  0.17729932D-01
  0.00000000D+00  0.00000000D+00  0.97816190D-02  0.00000000D+00  0.00000000D+00
  0.66747110D-03  0.00000000D+00  0.00000000D+00  0.48790621D-04 -0.11366851D-02
 -0.11366851D-02  0.22733702D-02  0.00000000D+00  0.00000000D+00  0.00000000D+00
 -0.18146657D-02 -0.18146657D-02  0.36293314D-02  0.00000000D+00  0.00000000D+00
  0.00000000D+00  0.13474445D-04  0.13474445D-04 -0.26948889D-04  0.00000000D+00
  0.00000000D+00  0.00000000D+00  0.00000000D+00  0.00000000D+00  0.33887659D-02
  0.00000000D+00  0.00000000D+00 -0.50831489D-02  0.00000000D+00  0.00000000D+00
 -0.50831489D-02  0.00000000D+00
MO    4     MO 0.0        OCC NO =    2.0000000  ORB. ENERGY =   -1.218749
 -0.76374736D-01 -0.14262577D+00 -0.24407731D+00 -0.38295144D+00 -0.52718698D+00
 -0.57440545D+00 -0.66481564D+00 -0.21421058D+00  0.25560013D+00  0.18157107D+00
  0.40966041D-01  0.66528410D-03  0.00000000D+00  0.00000000D+00  0.00000000D+00
  0.00000000D+00  0.00000000D+00  0.00000000D+00  0.00000000D+00  0.00000000D+00
 -0.12153329D-01 -0.13594236D-01 -0.11771510D-01 -0.66276283D-02  0.00000000D+00
  0.00000000D+00 -0.57743057D-02  0.00000000D+00  0.00000000D+00  0.35399876D-03
  0.00000000D+00  0.00000000D+00  0.62922413D-04 -0.20823714D-03 -0.20823714D-03
  0.41647428D-03  0.00000000D+00  0.00000000D+00  0.00000000D+00 -0.13394780D-02
 -0.13394780D-02  0.26789561D-02  0.00000000D+00  0.00000000D+00  0.00000000D+00
  0.76697388D-04  0.76697388D-04 -0.15339478D-03  0.00000000D+00  0.00000000D+00
  0.00000000D+00  0.00000000D+00  0.00000000D+00 -0.31646122D-02  0.00000000D+00
  0.00000000D+00  0.47469183D-02  0.00000000D+00  0.00000000D+00  0.47469183D-02
  0.00000000D+00  0.00000000D+00  0.00000000D+00  0.00000000D+00  0.00000000D+00
  0.00000000D+00  0.00000000D+00  0.00000000D+00  0.13035282D-01  0.00000000D+00
  0.00000000D+00  0.76556093D-02  0.00000000D+00  0.00000000D+00  0.61511995D-04
  0.00000000D+00  0.00000000D+00  0.00000000D+00  0.00000000D+00  0.00000000D+00
  0.00000000D+00  0.76374736D-01  0.14262577D+00  0.24407731D+00  0.38295144D+00
  0.52718698D+00  0.57440545D+00  0.66481564D+00  0.21421058D+00 -0.25560013D+00
 -0.18157107D+00 -0.40966041D-01 -0.66528410D-03  0.00000000D+00  0.00000000D+00
  0.00000000D+00  0.00000000D+00  0.00000000D+00  0.00000000D+00  0.00000000D+00
  0.00000000D+00 -0.12153329D-01 -0.13594236D-01 -0.11771510D-01 -0.66276283D-02
  0.00000000D+00  0.00000000D+00 -0.57743057D-02  0.00000000D+00  0.00000000D+00
  0.35399876D-03  0.00000000D+00  0.00000000D+00  0.62922413D-04  0.20823714D-03
  0.20823714D-03 -0.41647428D-03  0.00000000D+00  0.00000000D+00  0.00000000D+00
  0.13394780D-02  0.13394780D-02 -0.26789561D-02  0.00000000D+00  0.00000000D+00
  0.00000000D+00 -0.76697388D-04 -0.76697388D-04  0.15339478D-03  0.00000000D+00
  0.00000000D+00  0.00000000D+00  0.00000000D+00  0.00000000D+00 -0.31646122D-02
  0.00000000D+00  0.00000000D+00  0.47469183D-02  0.00000000D+00  0.00000000D+00
  0.47469183D-02  0.00000000D+00
MO    5     MO 0.0        OCC NO =    2.0000000  ORB. ENERGY =   -0.408302
 -0.10109280D-01 -0.18878545D-01 -0.32307095D-01 -0.50689057D-01 -0.69780677D-01
 -0.76030711D-01 -0.89879725D-01 -0.28960191D-01  0.40323714D-01  0.24333981D-01
  0.99631238D-02  0.18444294D-02  0.00000000D+00  0.00000000D+00  0.00000000D+00
  0.00000000D+00  0.00000000D+00  0.00000000D+00  0.00000000D+00  0.00000000D+00
  0.12119277D+01  0.13556147D+01  0.11738528D+01  0.66090586D+00  0.00000000D+00
  0.00000000D+00  0.21971624D+00  0.00000000D+00  0.00000000D+00  0.33362664D-01
  0.00000000D+00  0.00000000D+00  0.88098093D-03  0.11231619D-01  0.11231619D-01
 -0.22463237D-01  0.00000000D+00  0.00000000D+00  0.00000000D+00  0.61147217D-02
  0.61147217D-02 -0.12229443D-01  0.00000000D+00  0.00000000D+00  0.00000000D+00
  0.83630922D-04  0.83630922D-04 -0.16726184D-03  0.00000000D+00  0.00000000D+00
  0.00000000D+00  0.00000000D+00  0.00000000D+00  0.10892987D-01  0.00000000D+00
  0.00000000D+00 -0.16339480D-01  0.00000000D+00  0.00000000D+00 -0.16339480D-01
  0.00000000D+00 -0.28038049D-01 -0.50602971D-01 -0.74706897D-01 -0.55707337D-01
 -0.62822009D-02  0.00000000D+00  0.00000000D+00  0.00000000D+00  0.00000000D+00
  0.00000000D+00  0.00000000D+00  0.00000000D+00  0.00000000D+00  0.00000000D+00
  0.51584354D-02  0.51584354D-02 -0.10316871D-01  0.00000000D+00  0.00000000D+00
  0.00000000D+00 -0.10109280D-01 -0.18878545D-01 -0.32307095D-01 -0.50689057D-01
 -0.69780677D-01 -0.76030711D-01 -0.89879725D-01 -0.28960191D-01  0.40323714D-01
  0.24333981D-01  0.99631238D-02  0.18444294D-02  0.00000000D+00  0.00000000D+00
  0.00000000D+00  0.00000000D+00  0.00000000D+00  0.00000000D+00  0.00000000D+00
  0.00000000D+00 -0.12119277D+01 -0.13556147D+01 -0.11738528D+01 -0.66090586D+00
  0.00000000D+00  0.00000000D+00 -0.21971624D+00  0.00000000D+00  0.00000000D+00
 -0.33362664D-01  0.00000000D+00  0.00000000D+00 -0.88098093D-03  0.11231619D-01
  0.11231619D-01 -0.22463237D-01  0.00000000D+00  0.00000000D+00  0.00000000D+00
  0.61147217D-02  0.61147217D-02 -0.12229443D-01  0.00000000D+00  0.00000000D+00
  0.00000000D+00  0.83630922D-04  0.83630922D-04 -0.16726184D-03  0.00000000D+00
  0.00000000D+00  0.00000000D+00  0.00000000D+00  0.00000000D+00 -0.10892987D-01
  0.00000000D+00  0.00000000D+00  0.16339480D-01  0.00000000D+00  0.00000000D+00
  0.16339480D-01  0.00000000D+00
MO    6     MO 0.0        OCC NO =    2.0000000  ORB. ENERGY =   -0.330160
  0.00000000D+00  0.00000000D+00  0.00000000D+00  0.00000000D+00  0.00000000D+00
  0.00000000D+00  0.00000000D+00  0.00000000D+00  0.00000000D+00  0.00000000D+00
  0.00000000D+00  0.00000000D+00  0.14262453D+01  0.15953419D+01  0.13814372D+01
  0.77778058D+00  0.00000000D+00  0.00000000D+00  0.00000000D+00  0.00000000D+00
  0.00000000D+00  0.00000000D+00  0.00000000D+00  0.00000000D+00  0.25235087D+00
  0.00000000D+00  0.00000000D+00  0.42854476D-01  0.00000000D+00  0.00000000D+00
  0.13295690D-02  0.00000000D+00  0.00000000D+00  0.00000000D+00  0.00000000D+00
  0.00000000D+00  0.00000000D+00 -0.12580519D-01  0.00000000D+00  0.00000000D+00
  0.00000000D+00  0.00000000D+00  0.00000000D+00 -0.10097203D-01  0.00000000D+00
  0.00000000D+00  0.00000000D+00  0.00000000D+00  0.00000000D+00 -0.38450878D-03
  0.00000000D+00 -0.40699194D-02  0.00000000D+00  0.00000000D+00 -0.40699194D-02
  0.00000000D+00  0.00000000D+00  0.16279678D-01  0.00000000D+00  0.00000000D+00
  0.00000000D+00  0.00000000D+00  0.00000000D+00  0.00000000D+00  0.00000000D+00
  0.00000000D+00  0.86730600D-02  0.00000000D+00  0.00000000D+00  0.70614962D-02
  0.00000000D+00  0.00000000D+00  0.26226144D-03  0.00000000D+00  0.00000000D+00
  0.00000000D+00  0.00000000D+00  0.00000000D+00  0.00000000D+00  0.00000000D+00
  0.00000000D+00  0.00000000D+00  0.00000000D+00  0.00000000D+00  0.00000000D+00
  0.00000000D+00  0.00000000D+00  0.00000000D+00  0.00000000D+00  0.00000000D+00
  0.00000000D+00  0.00000000D+00  0.00000000D+00  0.14262453D+01  0.15953419D+01
  0.13814372D+01  0.77778058D+00  0.00000000D+00  0.00000000D+00  0.00000000D+00
  0.00000000D+00  0.00000000D+00  0.00000000D+00  0.00000000D+00  0.00000000D+00
  0.25235087D+00  0.00000000D+00  0.00000000D+00  0.42854476D-01  0.00000000D+00
  0.00000000D+00  0.13295690D-02  0.00000000D+00  0.00000000D+00  0.00000000D+00
  0.00000000D+00  0.00000000D+00  0.00000000D+00  0.12580519D-01  0.00000000D+00
  0.00000000D+00  0.00000000D+00  0.00000000D+00  0.00000000D+00  0.10097203D-01
  0.00000000D+00  0.00000000D+00  0.00000000D+00  0.00000000D+00  0.00000000D+00
  0.38450878D-03  0.00000000D+00 -0.40699194D-02  0.00000000D+00  0.00000000D+00
 -0.40699194D-02  0.00000000D+00  0.00000000D+00  0.16279678D-01  0.00000000D+00
  0.00000000D+00  0.00000000D+00
MO    7     MO 0.0        OCC NO =    2.0000000  ORB. ENERGY =   -0.330160
  0.00000000D+00  0.00000000D+00  0.00000000D+00  0.00000000D+00  0.00000000D+00
  0.00000000D+00  0.00000000D+00  0.00000000D+00  0.00000000D+00  0.00000000D+00
  0.00000000D+00  0.00000000D+00  0.00000000D+00  0.00000000D+00  0.00000000D+00
  0.00000000D+00  0.14262453D+01  0.15953419D+01  0.13814372D+01  0.77778058D+00
  0.00000000D+00  0.00000000D+00  0.00000000D+00  0.00000000D+00  0.00000000D+00
  0.25235087D+00  0.00000000D+00  0.00000000D+00  0.42854476D-01  0.00000000D+00
  0.00000000D+00  0.13295690D-02  0.00000000D+00  0.00000000D+00  0.00000000D+00
  0.00000000D+00  0.00000000D+00  0.00000000D+00 -0.12580519D-01  0.00000000D+00
  0.00000000D+00  0.00000000D+00  0.00000000D+00  0.00000000D+00 -0.10097203D-01
  0.00000000D+00  0.00000000D+00  0.00000000D+00  0.00000000D+00  0.00000000D+00
 -0.38450878D-03  0.00000000D+00 -0.40699194D-02  0.00000000D+00  0.00000000D+00
 -0.40699194D-02  0.00000000D+00  0.00000000D+00  0.16279678D-01  0.00000000D+00
  0.00000000D+00  0.00000000D+00  0.00000000D+00  0.00000000D+00  0.00000000D+00
  0.00000000D+00  0.00000000D+00  0.86730600D-02  0.00000000D+00  0.00000000D+00
  0.70614962D-02  0.00000000D+00  0.00000000D+00  0.26226144D-03  0.00000000D+00
  0.00000000D+00  0.00000000D+00  0.00000000D+00  0.00000000D+00  0.00000000D+00
  0.00000000D+00  0.00000000D+00  0.00000000D+00  0.00000000D+00  0.00000000D+00
  0.00000000D+00  0.00000000D+00  0.00000000D+00  0.00000000D+00  0.00000000D+00
  0.00000000D+00  0.00000000D+00  0.00000000D+00  0.00000000D+00  0.00000000D+00
  0.00000000D+00  0.00000000D+00  0.14262453D+01  0.15953419D+01  0.13814372D+01
  0.77778058D+00  0.00000000D+00  0.00000000D+00  0.00000000D+00  0.00000000D+00
  0.00000000D+00  0.25235087D+00  0.00000000D+00  0.00000000D+00  0.42854476D-01
  0.00000000D+00  0.00000000D+00  0.13295690D-02  0.00000000D+00  0.00000000D+00
  0.00000000D+00  0.00000000D+00  0.00000000D+00  0.00000000D+00  0.12580519D-01
  0.00000000D+00  0.00000000D+00  0.00000000D+00  0.00000000D+00  0.00000000D+00
  0.10097203D-01  0.00000000D+00  0.00000000D+00  0.00000000D+00  0.00000000D+00
  0.00000000D+00  0.38450878D-03  0.00000000D+00 -0.40699194D-02  0.00000000D+00
  0.00000000D+00 -0.40699194D-02  0.00000000D+00  0.00000000D+00  0.16279678D-01
  0.00000000D+00  0.00000000D+00
MO    8     MO 0.0        OCC NO =    2.0000000  ORB. ENERGY =   -0.320670
  0.00000000D+00  0.00000000D+00  0.00000000D+00  0.00000000D+00  0.00000000D+00
  0.00000000D+00  0.00000000D+00  0.00000000D+00  0.00000000D+00  0.00000000D+00
  0.00000000D+00  0.00000000D+00  0.14486973D+01  0.16204558D+01  0.14031838D+01
  0.79002445D+00  0.00000000D+00  0.00000000D+00  0.00000000D+00  0.00000000D+00
  0.00000000D+00  0.00000000D+00  0.00000000D+00  0.00000000D+00  0.25592236D+00
  0.00000000D+00  0.00000000D+00  0.44213550D-01  0.00000000D+00  0.00000000D+00
  0.15867372D-02  0.00000000D+00  0.00000000D+00  0.00000000D+00  0.00000000D+00
  0.00000000D+00  0.00000000D+00 -0.11405386D-01  0.00000000D+00  0.00000000D+00
  0.00000000D+00  0.00000000D+00  0.00000000D+00 -0.86751748D-02  0.00000000D+00
  0.00000000D+00  0.00000000D+00  0.00000000D+00  0.00000000D+00 -0.73213934D-03
  0.00000000D+00 -0.39002887D-02  0.00000000D+00  0.00000000D+00 -0.39002887D-02
  0.00000000D+00  0.00000000D+00  0.15601155D-01  0.00000000D+00  0.00000000D+00
  0.00000000D+00  0.00000000D+00  0.00000000D+00  0.00000000D+00  0.00000000D+00
  0.00000000D+00  0.00000000D+00  0.00000000D+00  0.00000000D+00  0.00000000D+00
  0.00000000D+00  0.00000000D+00  0.00000000D+00  0.00000000D+00  0.00000000D+00
  0.00000000D+00  0.00000000D+00  0.00000000D+00  0.00000000D+00  0.16540409D-01
  0.00000000D+00  0.00000000D+00  0.00000000D+00  0.00000000D+00  0.00000000D+00
  0.00000000D+00  0.00000000D+00  0.00000000D+00  0.00000000D+00  0.00000000D+00
  0.00000000D+00  0.00000000D+00  0.00000000D+00 -0.14486973D+01 -0.16204558D+01
 -0.14031838D+01 -0.79002445D+00  0.00000000D+00  0.00000000D+00  0.00000000D+00
  0.00000000D+00  0.00000000D+00  0.00000000D+00  0.00000000D+00  0.00000000D+00
 -0.25592236D+00  0.00000000D+00  0.00000000D+00 -0.44213550D-01  0.00000000D+00
  0.00000000D+00 -0.15867372D-02  0.00000000D+00  0.00000000D+00  0.00000000D+00
  0.00000000D+00  0.00000000D+00  0.00000000D+00 -0.11405386D-01  0.00000000D+00
  0.00000000D+00  0.00000000D+00  0.00000000D+00  0.00000000D+00 -0.86751748D-02
  0.00000000D+00  0.00000000D+00  0.00000000D+00  0.00000000D+00  0.00000000D+00
 -0.73213934D-03  0.00000000D+00  0.39002887D-02  0.00000000D+00  0.00000000D+00
  0.39002887D-02  0.00000000D+00  0.00000000D+00 -0.15601155D-01  0.00000000D+00
  0.00000000D+00  0.00000000D+00
MO    9     MO 0.0        OCC NO =    2.0000000  ORB. ENERGY =   -0.320670
  0.00000000D+00  0.00000000D+00  0.00000000D+00  0.00000000D+00  0.00000000D+00
  0.00000000D+00  0.00000000D+00  0.00000000D+00  0.00000000D+00  0.00000000D+00
  0.00000000D+00  0.00000000D+00  0.00000000D+00  0.00000000D+00  0.00000000D+00
  0.00000000D+00  0.14486973D+01  0.16204558D+01  0.14031838D+01  0.79002445D+00
  0.00000000D+00  0.00000000D+00  0.00000000D+00  0.00000000D+00  0.00000000D+00
  0.25592236D+00  0.00000000D+00  0.00000000D+00  0.44213550D-01  0.00000000D+00
  0.00000000D+00  0.15867372D-02  0.00000000D+00  0.00000000D+00  0.00000000D+00
  0.00000000D+00  0.00000000D+00  0.00000000D+00 -0.11405386D-01  0.00000000D+00
  0.00000000D+00  0.00000000D+00  0.00000000D+00  0.00000000D+00 -0.86751748D-02
  0.00000000D+00  0.00000000D+00  0.00000000D+00  0.00000000D+00  0.00000000D+00
 -0.73213934D-03  0.00000000D+00 -0.39002887D-02  0.00000000D+00  0.00000000D+00
 -0.39002887D-02  0.00000000D+00  0.00000000D+00  0.15601155D-01  0.00000000D+00
  0.00000000D+00  0.00000000D+00  0.00000000D+00  0.00000000D+00  0.00000000D+00
  0.00000000D+00  0.00000000D+00  0.00000000D+00  0.00000000D+00  0.00000000D+00
  0.00000000D+00  0.00000000D+00  0.00000000D+00  0.00000000D+00  0.00000000D+00
  0.00000000D+00  0.00000000D+00  0.00000000D+00  0.00000000D+00  0.00000000D+00
  0.16540409D-01  0.00000000D+00  0.00000000D+00  0.00000000D+00  0.00000000D+00
  0.00000000D+00  0.00000000D+00  0.00000000D+00  0.00000000D+00  0.00000000D+00
  0.00000000D+00  0.00000000D+00  0.00000000D+00  0.00000000D+00  0.00000000D+00
  0.00000000D+00  0.00000000D+00 -0.14486973D+01 -0.16204558D+01 -0.14031838D+01
 -0.79002445D+00  0.00000000D+00  0.00000000D+00  0.00000000D+00  0.00000000D+00
  0.00000000D+00 -0.25592236D+00  0.00000000D+00  0.00000000D+00 -0.44213550D-01
  0.00000000D+00  0.00000000D+00 -0.15867372D-02  0.00000000D+00  0.00000000D+00
  0.00000000D+00  0.00000000D+00  0.00000000D+00  0.00000000D+00 -0.11405386D-01
  0.00000000D+00  0.00000000D+00  0.00000000D+00  0.00000000D+00  0.00000000D+00
 -0.86751748D-02  0.00000000D+00  0.00000000D+00  0.00000000D+00  0.00000000D+00
  0.00000000D+00 -0.73213934D-03  0.00000000D+00  0.39002887D-02  0.00000000D+00
  0.00000000D+00  0.39002887D-02  0.00000000D+00  0.00000000D+00 -0.15601155D-01
  0.00000000D+00  0.00000000D+00
MO   10     MO 0.0        OCC NO =    2.0000000  ORB. ENERGY =   -0.292099
 -0.14659200D-02 -0.27375279D-02 -0.46847666D-02 -0.73502863D-02 -0.10118712D-01
 -0.11025013D-01 -0.13631618D-01 -0.43922504D-02  0.87961410D-02  0.17974891D-02
  0.41200921D-02  0.45741469D-02  0.00000000D+00  0.00000000D+00  0.00000000D+00
  0.00000000D+00  0.00000000D+00  0.00000000D+00  0.00000000D+00  0.00000000D+00
  0.14240595D+01  0.15928970D+01  0.13793201D+01  0.77658861D+00  0.00000000D+00
  0.00000000D+00  0.25596214D+00  0.00000000D+00  0.00000000D+00  0.40855442D-01
  0.00000000D+00  0.00000000D+00  0.12931132D-02  0.79137318D-02  0.79137318D-02
 -0.15827464D-01  0.00000000D+00  0.00000000D+00  0.00000000D+00  0.34752604D-02
  0.34752604D-02 -0.69505208D-02  0.00000000D+00  0.00000000D+00  0.00000000D+00
 -0.89568962D-04 -0.89568962D-04  0.17913792D-03  0.00000000D+00  0.00000000D+00
  0.00000000D+00  0.00000000D+00  0.00000000D+00  0.87514315D-02  0.00000000D+00
  0.00000000D+00 -0.13127147D-01  0.00000000D+00  0.00000000D+00 -0.13127147D-01
  0.00000000D+00  0.00000000D+00  0.00000000D+00  0.00000000D+00  0.00000000D+00
  0.00000000D+00  0.00000000D+00  0.00000000D+00 -0.29790239D-01  0.00000000D+00
  0.00000000D+00 -0.27548304D-01  0.00000000D+00  0.00000000D+00 -0.38748989D-02
  0.00000000D+00  0.00000000D+00  0.00000000D+00  0.00000000D+00  0.00000000D+00
  0.00000000D+00  0.14659200D-02  0.27375279D-02  0.46847666D-02  0.73502863D-02
  0.10118712D-01  0.11025013D-01  0.13631618D-01  0.43922504D-02 -0.87961410D-02
 -0.17974891D-02 -0.41200921D-02 -0.45741469D-02  0.00000000D+00  0.00000000D+00
  0.00000000D+00  0.00000000D+00  0.00000000D+00  0.00000000D+00  0.00000000D+00
  0.00000000D+00  0.14240595D+01  0.15928970D+01  0.13793201D+01  0.77658861D+00
  0.00000000D+00  0.00000000D+00  0.25596214D+00  0.00000000D+00  0.00000000D+00
  0.40855442D-01  0.00000000D+00  0.00000000D+00  0.12931132D-02 -0.79137318D-02
 -0.79137318D-02  0.15827464D-01  0.00000000D+00  0.00000000D+00  0.00000000D+00
 -0.34752604D-02 -0.34752604D-02  0.69505208D-02  0.00000000D+00  0.00000000D+00
  0.00000000D+00  0.89568962D-04  0.89568962D-04 -0.17913792D-03  0.00000000D+00
  0.00000000D+00  0.00000000D+00  0.00000000D+00  0.00000000D+00  0.87514315D-02
  0.00000000D+00  0.00000000D+00 -0.13127147D-01  0.00000000D+00  0.00000000D+00
 -0.13127147D-01  0.00000000D+00
END DATA
 TOTAL ENERGY =     -199.535045177392 THE VIRIAL(-V/T)=   2.00221761
