 H2O - geom Experimentale - base Def2TZVP (allE)
GAUSSIAN              5 MOL ORBITALS     67 PRIMITIVES        3 NUCLEI
  H    1    (CENTRE  1)  -0.00000000  1.43154464 -0.88753579  CHARGE =  1.0
  O    2    (CENTRE  2)   0.00000000  0.00000000  0.22188395  CHARGE =  8.0
  H    3    (CENTRE  3)  -0.00000000 -1.43154464 -0.88753579  CHARGE =  1.0
CENTRE ASSIGNMENTS    1  1  1  1  1  1  1  1  2  2  2  2  2  2  2  2  2  2  2  2
CENTRE ASSIGNMENTS    2  2  2  2  2  2  2  2  2  2  2  2  2  2  2  2  2  2  2  2
CENTRE ASSIGNMENTS    2  2  2  2  2  2  2  2  2  2  2  2  2  2  2  2  2  2  2  3
CENTRE ASSIGNMENTS    3  3  3  3  3  3  3
TYPE ASSIGNMENTS      1  1  1  1  1  2  3  4  1  1  1  1  1  1  1  1  1  1  1  2
TYPE ASSIGNMENTS      2  2  2  3  3  3  3  4  4  4  4  2  3  4  2  3  4  5  6  7
TYPE ASSIGNMENTS      8  9 10  5  6  7  8  9 10 11 12 13 17 14 15 18 19 16 20  1
TYPE ASSIGNMENTS      1  1  1  1  2  3  4
EXPONENTS  0.3406134D+02 0.5123575D+01 0.1164663D+01 0.3272304D+00 0.1030724D+00
EXPONENTS  0.8000000D+00 0.8000000D+00 0.8000000D+00 0.2703238D+05 0.4052387D+04
EXPONENTS  0.9223272D+03 0.2612407D+03 0.8535464D+02 0.3103504D+02 0.1226086D+02
EXPONENTS  0.4998708D+01 0.1170311D+01 0.4647474D+00 0.1850454D+00 0.6327495D+02
EXPONENTS  0.1462705D+02 0.4450122D+01 0.1527580D+01 0.6327495D+02 0.1462705D+02
EXPONENTS  0.4450122D+01 0.1527580D+01 0.6327495D+02 0.1462705D+02 0.4450122D+01
EXPONENTS  0.1527580D+01 0.5293512D+00 0.5293512D+00 0.5293512D+00 0.1747842D+00
EXPONENTS  0.1747842D+00 0.1747842D+00 0.2314000D+01 0.2314000D+01 0.2314000D+01
EXPONENTS  0.2314000D+01 0.2314000D+01 0.2314000D+01 0.6450000D+00 0.6450000D+00
EXPONENTS  0.6450000D+00 0.6450000D+00 0.6450000D+00 0.6450000D+00 0.1428000D+01
EXPONENTS  0.1428000D+01 0.1428000D+01 0.1428000D+01 0.1428000D+01 0.1428000D+01
EXPONENTS  0.1428000D+01 0.1428000D+01 0.1428000D+01 0.1428000D+01 0.3406134D+02
EXPONENTS  0.5123575D+01 0.1164663D+01 0.3272304D+00 0.1030724D+00 0.8000000D+00
EXPONENTS  0.8000000D+00 0.8000000D+00
MO    1     MO 0.0        OCC NO =    2.0000000  ORB. ENERGY =  -20.559948
  0.11152726D-03  0.20128400D-03  0.29716246D-03  0.19356725D-03 -0.95739022D-04
  0.00000000D+00 -0.35434131D-03  0.18209116D-03  0.37457809D+00  0.69941362D+00
  0.11961805D+01  0.18726623D+01  0.25613892D+01  0.27515982D+01  0.19151250D+01
  0.60511018D+00  0.17535201D-01 -0.35076433D-02  0.73791468D-03  0.00000000D+00
  0.00000000D+00  0.00000000D+00  0.00000000D+00  0.00000000D+00  0.00000000D+00
  0.00000000D+00  0.00000000D+00 -0.53927362D-02 -0.59700441D-02 -0.51990982D-02
 -0.30195692D-02  0.00000000D+00  0.00000000D+00  0.10568467D-02  0.00000000D+00
  0.00000000D+00 -0.98911936D-04 -0.10630351D-03 -0.58083245D-04  0.16438676D-03
  0.00000000D+00  0.00000000D+00  0.00000000D+00  0.28822037D-03 -0.20824966D-03
 -0.79970717D-04  0.00000000D+00  0.00000000D+00  0.00000000D+00  0.00000000D+00
  0.00000000D+00 -0.21789325D-04  0.00000000D+00  0.00000000D+00 -0.27617436D-03
  0.00000000D+00  0.00000000D+00  0.34154234D-03  0.00000000D+00  0.11152726D-03
  0.20128400D-03  0.29716246D-03  0.19356725D-03 -0.95739022D-04  0.00000000D+00
  0.35434131D-03  0.18209116D-03
MO    2     MO 0.0        OCC NO =    2.0000000  ORB. ENERGY =   -1.349209
  0.22368056D-01  0.40369788D-01  0.59599299D-01  0.20261923D-01  0.55204313D-03
  0.00000000D+00 -0.15197639D-01  0.93083446D-02 -0.82515237D-01 -0.15407276D+00
 -0.26350479D+00 -0.41252592D+00 -0.56424453D+00 -0.60614538D+00 -0.69278688D+00
 -0.21889558D+00  0.26261645D+00  0.18657787D+00  0.31760209D-01  0.00000000D+00
  0.00000000D+00  0.00000000D+00  0.00000000D+00  0.00000000D+00  0.00000000D+00
  0.00000000D+00  0.00000000D+00 -0.18274475D+00 -0.20230810D+00 -0.17618290D+00
 -0.10232476D+00  0.00000000D+00  0.00000000D+00 -0.39558962D-01  0.00000000D+00
  0.00000000D+00 -0.10652661D-02 -0.28279316D-01  0.21385219D-01  0.68940975D-02
  0.00000000D+00  0.00000000D+00  0.00000000D+00 -0.80859332D-02  0.51805299D-02
  0.29054033D-02  0.00000000D+00  0.00000000D+00  0.00000000D+00  0.00000000D+00
  0.00000000D+00  0.68831183D-02  0.00000000D+00  0.00000000D+00  0.24959142D-01
  0.00000000D+00  0.00000000D+00 -0.45608497D-01  0.00000000D+00  0.22368056D-01
  0.40369788D-01  0.59599299D-01  0.20261923D-01  0.55204313D-03  0.00000000D+00
  0.15197639D-01  0.93083446D-02
MO    3     MO 0.0        OCC NO =    2.0000000  ORB. ENERGY =   -0.714032
  0.35830567D-01  0.64666880D-01  0.95469927D-01  0.57001323D-01  0.66822335D-02
  0.00000000D+00 -0.10580259D-01  0.19022975D-01  0.00000000D+00  0.00000000D+00
  0.00000000D+00  0.00000000D+00  0.00000000D+00  0.00000000D+00  0.00000000D+00
  0.00000000D+00  0.00000000D+00  0.00000000D+00  0.00000000D+00  0.00000000D+00
  0.00000000D+00  0.00000000D+00  0.00000000D+00  0.11240995D+01  0.12444376D+01
  0.10837362D+01  0.62942004D+00  0.00000000D+00  0.00000000D+00  0.00000000D+00
  0.00000000D+00  0.00000000D+00  0.20777923D+00  0.00000000D+00  0.00000000D+00
  0.19995869D-01  0.00000000D+00  0.00000000D+00  0.00000000D+00  0.00000000D+00
  0.00000000D+00  0.00000000D+00 -0.16957252D+00  0.00000000D+00  0.00000000D+00
  0.00000000D+00  0.00000000D+00  0.00000000D+00 -0.45410573D-01  0.00000000D+00
  0.10971541D-01  0.00000000D+00  0.00000000D+00 -0.48244232D-01  0.00000000D+00
  0.00000000D+00  0.15329610D-01  0.00000000D+00  0.00000000D+00 -0.35830567D-01
 -0.64666880D-01 -0.95469927D-01 -0.57001323D-01 -0.66822335D-02  0.00000000D+00
 -0.10580259D-01 -0.19022975D-01
MO    4     MO 0.0        OCC NO =    2.0000000  ORB. ENERGY =   -0.581198
 -0.21849979D-01 -0.39434765D-01 -0.58218892D-01 -0.38185539D-01 -0.42794306D-02
  0.00000000D+00  0.19033156D-01  0.78736172D-02 -0.27361016D-01 -0.51088593D-01
 -0.87374878D-01 -0.13678842D+00 -0.18709640D+00 -0.20099020D+00 -0.23403718D+00
 -0.73947280D-01  0.10022016D+00  0.73865224D-01  0.38886296D-01  0.00000000D+00
  0.00000000D+00  0.00000000D+00  0.00000000D+00  0.00000000D+00  0.00000000D+00
  0.00000000D+00  0.00000000D+00  0.12429745D+01  0.13760385D+01  0.11983428D+01
  0.69598205D+00  0.00000000D+00  0.00000000D+00  0.22770963D+00  0.00000000D+00
  0.00000000D+00  0.36314437D-01  0.39811869D-01 -0.71588721D-02 -0.32652997D-01
  0.00000000D+00  0.00000000D+00  0.00000000D+00  0.13109605D-01  0.67919139D-02
 -0.19901519D-01  0.00000000D+00  0.00000000D+00  0.00000000D+00  0.00000000D+00
  0.00000000D+00  0.23500492D-02  0.00000000D+00  0.00000000D+00 -0.32712971D-01
  0.00000000D+00  0.00000000D+00  0.25662824D-01  0.00000000D+00 -0.21849979D-01
 -0.39434765D-01 -0.58218892D-01 -0.38185539D-01 -0.42794306D-02  0.00000000D+00
 -0.19033156D-01  0.78736172D-02
MO    5     MO 0.0        OCC NO =    2.0000000  ORB. ENERGY =   -0.507977
  0.00000000D+00  0.00000000D+00  0.00000000D+00  0.00000000D+00  0.00000000D+00
  0.25724378D-01  0.00000000D+00  0.00000000D+00  0.00000000D+00  0.00000000D+00
  0.00000000D+00  0.00000000D+00  0.00000000D+00  0.00000000D+00  0.00000000D+00
  0.00000000D+00  0.00000000D+00  0.00000000D+00  0.00000000D+00  0.14181064D+01
  0.15699188D+01  0.13671862D+01  0.79404412D+00  0.00000000D+00  0.00000000D+00
  0.00000000D+00  0.00000000D+00  0.00000000D+00  0.00000000D+00  0.00000000D+00
  0.00000000D+00  0.26734377D+00  0.00000000D+00  0.00000000D+00  0.50473812D-01
  0.00000000D+00  0.00000000D+00  0.00000000D+00  0.00000000D+00  0.00000000D+00
  0.00000000D+00 -0.52534795D-01  0.00000000D+00  0.00000000D+00  0.00000000D+00
  0.00000000D+00  0.00000000D+00 -0.33947880D-01  0.00000000D+00 -0.18161158D-01
  0.00000000D+00  0.00000000D+00  0.37321884D-01  0.00000000D+00  0.00000000D+00
  0.17161589D-01  0.00000000D+00  0.00000000D+00  0.00000000D+00  0.00000000D+00
  0.00000000D+00  0.00000000D+00  0.00000000D+00  0.00000000D+00  0.25724378D-01
  0.00000000D+00  0.00000000D+00
END DATA
 TOTAL ENERGY =      -76.058962962125 THE VIRIAL(-V/T)=   2.00078348
