 H3m - TS lineaire - Def2-TZVPPD - Geom opt CCSD meme bas
GAUSSIAN              2 MOL ORBITALS     60 PRIMITIVES        3 NUCLEI
  H    1    (CENTRE  1)   0.00000000  0.00000000  0.00000000  CHARGE =  1.0
  H    2    (CENTRE  2)   0.00000000  0.00000000  2.01582567  CHARGE =  1.0
  H    3    (CENTRE  3)   0.00000000  0.00000000 -2.01582567  CHARGE =  1.0
CENTRE ASSIGNMENTS    1  1  1  1  1  1  1  1  1  1  1  1  1  1  1  1  1  1  1  1
CENTRE ASSIGNMENTS    2  2  2  2  2  2  2  2  2  2  2  2  2  2  2  2  2  2  2  2
CENTRE ASSIGNMENTS    3  3  3  3  3  3  3  3  3  3  3  3  3  3  3  3  3  3  3  3
TYPE ASSIGNMENTS      1  1  1  1  1  2  3  4  2  3  4  2  3  4  5  6  7  8  9 10
TYPE ASSIGNMENTS      1  1  1  1  1  2  3  4  2  3  4  2  3  4  5  6  7  8  9 10
TYPE ASSIGNMENTS      1  1  1  1  1  2  3  4  2  3  4  2  3  4  5  6  7  8  9 10
EXPONENTS  0.3406134D+02 0.5123575D+01 0.1164663D+01 0.3272304D+00 0.1030724D+00
EXPONENTS  0.1407000D+01 0.1407000D+01 0.1407000D+01 0.3880000D+00 0.3880000D+00
EXPONENTS  0.3880000D+00 0.9577413D-01 0.9577413D-01 0.9577413D-01 0.1057000D+01
EXPONENTS  0.1057000D+01 0.1057000D+01 0.1057000D+01 0.1057000D+01 0.1057000D+01
EXPONENTS  0.3406134D+02 0.5123575D+01 0.1164663D+01 0.3272304D+00 0.1030724D+00
EXPONENTS  0.1407000D+01 0.1407000D+01 0.1407000D+01 0.3880000D+00 0.3880000D+00
EXPONENTS  0.3880000D+00 0.9577413D-01 0.9577413D-01 0.9577413D-01 0.1057000D+01
EXPONENTS  0.1057000D+01 0.1057000D+01 0.1057000D+01 0.1057000D+01 0.1057000D+01
EXPONENTS  0.3406134D+02 0.5123575D+01 0.1164663D+01 0.3272304D+00 0.1030724D+00
EXPONENTS  0.1407000D+01 0.1407000D+01 0.1407000D+01 0.3880000D+00 0.3880000D+00
EXPONENTS  0.3880000D+00 0.9577413D-01 0.9577413D-01 0.9577413D-01 0.1057000D+01
EXPONENTS  0.1057000D+01 0.1057000D+01 0.1057000D+01 0.1057000D+01 0.1057000D+01
MO    1     MO 0.0        OCC NO =    2.0000000  ORB. ENERGY =   -0.301942
  0.39055413D-01  0.70487071D-01  0.10406247D+00  0.71115863D-01  0.27221610D-01
  0.00000000D+00  0.00000000D+00  0.00000000D+00  0.00000000D+00  0.00000000D+00
  0.00000000D+00  0.00000000D+00  0.00000000D+00  0.00000000D+00 -0.28627285D-02
 -0.28627285D-02  0.57254569D-02  0.00000000D+00  0.00000000D+00  0.00000000D+00
  0.27797167D-01  0.50168229D-01  0.74065071D-01  0.55652791D-01  0.16818729D-01
  0.00000000D+00  0.00000000D+00 -0.13994945D-01  0.00000000D+00  0.00000000D+00
 -0.73318841D-02  0.00000000D+00  0.00000000D+00  0.18231392D-02 -0.22715091D-02
 -0.22715091D-02  0.45430183D-02  0.00000000D+00  0.00000000D+00  0.00000000D+00
  0.27797167D-01  0.50168229D-01  0.74065071D-01  0.55652791D-01  0.16818729D-01
  0.00000000D+00  0.00000000D+00  0.13994945D-01  0.00000000D+00  0.00000000D+00
  0.73318841D-02  0.00000000D+00  0.00000000D+00 -0.18231392D-02 -0.22715091D-02
 -0.22715091D-02  0.45430183D-02  0.00000000D+00  0.00000000D+00  0.00000000D+00
MO    2     MO 0.0        OCC NO =    2.0000000  ORB. ENERGY =   -0.036124
  0.00000000D+00  0.00000000D+00  0.00000000D+00  0.00000000D+00  0.00000000D+00
  0.00000000D+00  0.00000000D+00  0.31730476D-01  0.00000000D+00  0.00000000D+00
  0.20605545D-01  0.00000000D+00  0.00000000D+00  0.14325657D+00  0.00000000D+00
  0.00000000D+00  0.00000000D+00  0.00000000D+00  0.00000000D+00  0.00000000D+00
  0.33077325D-01  0.59697839D-01  0.88133961D-01  0.86600441D-01 -0.23549525D+00
  0.00000000D+00  0.00000000D+00 -0.46227535D-02  0.00000000D+00  0.00000000D+00
  0.33762489D-02  0.00000000D+00  0.00000000D+00  0.42282328D-01 -0.82184084D-05
 -0.82184084D-05  0.16436817D-04  0.00000000D+00  0.00000000D+00  0.00000000D+00
 -0.33077325D-01 -0.59697839D-01 -0.88133961D-01 -0.86600441D-01  0.23549525D+00
  0.00000000D+00  0.00000000D+00 -0.46227535D-02  0.00000000D+00  0.00000000D+00
  0.33762489D-02  0.00000000D+00  0.00000000D+00  0.42282328D-01  0.82184084D-05
  0.82184084D-05 -0.16436817D-04  0.00000000D+00  0.00000000D+00  0.00000000D+00
END DATA
 TOTAL ENERGY =       -1.591223245141 THE VIRIAL(-V/T)=   1.98550125
