 HF dist. exp., base Dolg-Filippi                        
GAUSSIAN              5 MOL ORBITALS     40 PRIMITIVES        2 NUCLEI
  F    1    (CENTRE  1)   0.00000000  0.00000000  0.17325009  CHARGE =  9.0
  H    2    (CENTRE  2)   0.00000000  0.00000000 -1.55925083  CHARGE =  1.0
CENTRE ASSIGNMENTS    1  1  1  1  1  1  1  1  1  1  1  1  1  1  1  1  1  1  1  1
CENTRE ASSIGNMENTS    1  1  1  1  1  1  1  1  1  1  1  1  1  2  2  2  2  2  2  2
TYPE ASSIGNMENTS      1  1  1  1  1  1  1  1  1  1  1  1  1  1  1  2  2  2  3  3
TYPE ASSIGNMENTS      3  4  4  4  2  3  4  5  6  7  8  9 10  1  1  1  1  2  3  4
EXPONENTS  0.1471000D+05 0.2207000D+04 0.5028000D+03 0.1426000D+03 0.4647000D+02
EXPONENTS  0.1670000D+02 0.6356000D+01 0.1471000D+05 0.5028000D+03 0.1426000D+03
EXPONENTS  0.4647000D+02 0.1670000D+02 0.6356000D+01 0.1316000D+01 0.3897000D+00
EXPONENTS  0.2267000D+02 0.4977000D+01 0.1347000D+01 0.2267000D+02 0.4977000D+01
EXPONENTS  0.1347000D+01 0.2267000D+02 0.4977000D+01 0.1347000D+01 0.3471000D+00
EXPONENTS  0.3471000D+00 0.3471000D+00 0.1640000D+01 0.1640000D+01 0.1640000D+01
EXPONENTS  0.1640000D+01 0.1640000D+01 0.1640000D+01 0.1301000D+02 0.1962000D+01
EXPONENTS  0.4446000D+00 0.1220000D+00 0.7270000D+00 0.7270000D+00 0.7270000D+00
MO    1     MO 0.0        OCC NO =    2.0000000  ORB. ENERGY =  -26.278124
  0.68620486D+00  0.12742869D+01  0.21386813D+01  0.31316796D+01  0.36401467D+01
  0.26517137D+01  0.75917621D+00  0.12929901D-03  0.34737061D-03 -0.13382964D-02
 -0.21869942D-02 -0.10777550D-01 -0.40081345D-02  0.13947323D-01 -0.97277133D-03
  0.00000000D+00  0.00000000D+00  0.00000000D+00  0.00000000D+00  0.00000000D+00
  0.00000000D+00 -0.49874703D-02 -0.39367218D-02 -0.16578713D-02  0.00000000D+00
  0.00000000D+00  0.20697122D-03  0.84923282D-04  0.84923282D-04 -0.16984656D-03
  0.00000000D+00  0.00000000D+00  0.00000000D+00  0.25314008D-04  0.42938658D-04
  0.48871644D-04  0.87341767D-04  0.00000000D+00  0.00000000D+00 -0.35414032D-03
MO    2     MO 0.0        OCC NO =    2.0000000  ORB. ENERGY =   -1.583523
 -0.15417278D+00 -0.28629985D+00 -0.48050727D+00 -0.70360873D+00 -0.81784837D+00
 -0.59577261D+00 -0.17056758D+00  0.42792147D-02  0.11496403D-01 -0.44291584D-01
 -0.72379658D-01 -0.35668834D+00 -0.13265120D+00  0.46159356D+00  0.16891386D+00
  0.00000000D+00  0.00000000D+00  0.00000000D+00  0.00000000D+00  0.00000000D+00
  0.00000000D+00 -0.28674128D+00 -0.22633130D+00 -0.95314882D-01  0.00000000D+00
  0.00000000D+00  0.27061073D-02 -0.10682493D-01 -0.10682493D-01  0.21364987D-01
  0.00000000D+00  0.00000000D+00  0.00000000D+00  0.28577842D-01  0.48474907D-01
  0.55172857D-01  0.80882425D-03  0.00000000D+00  0.00000000D+00  0.43397317D-01
MO    3     MO 0.0        OCC NO =    2.0000000  ORB. ENERGY =   -0.747277
 -0.38226182D-01 -0.70986268D-01 -0.11913879D+00 -0.17445541D+00 -0.20278042D+00
 -0.14771812D+00 -0.42291172D-01  0.10109576D-02  0.27160067D-02 -0.10463816D-01
 -0.17099578D-01 -0.84267050D-01 -0.31338633D-01  0.10905074D+00  0.10192556D+00
  0.00000000D+00  0.00000000D+00  0.00000000D+00  0.00000000D+00  0.00000000D+00
  0.00000000D+00  0.25411421D+01  0.20057803D+01  0.84469406D+00  0.00000000D+00
  0.00000000D+00  0.11377266D+00  0.35363729D-01  0.35363729D-01 -0.70727459D-01
  0.00000000D+00  0.00000000D+00  0.00000000D+00 -0.63381913D-01 -0.10751100D+00
 -0.12236618D+00 -0.58397752D-02  0.00000000D+00  0.00000000D+00 -0.54855274D-01
MO    4     MO 0.0        OCC NO =    2.0000000  ORB. ENERGY =   -0.628909
  0.00000000D+00  0.00000000D+00  0.00000000D+00  0.00000000D+00  0.00000000D+00
  0.00000000D+00  0.00000000D+00  0.00000000D+00  0.00000000D+00 -0.00000000D+00
 -0.00000000D+00 -0.00000000D+00 -0.00000000D+00  0.00000000D+00  0.00000000D+00
  0.30372426D+01  0.23973635D+01  0.10096015D+01  0.00000000D+00  0.00000000D+00
  0.00000000D+00  0.00000000D+00  0.00000000D+00  0.00000000D+00  0.18047805D+00
  0.00000000D+00  0.00000000D+00  0.00000000D+00  0.00000000D+00  0.00000000D+00
  0.00000000D+00 -0.83333547D-01  0.00000000D+00  0.00000000D+00  0.00000000D+00
  0.00000000D+00  0.00000000D+00  0.32595972D-01  0.00000000D+00  0.00000000D+00
MO    5     MO 0.0        OCC NO =    2.0000000  ORB. ENERGY =   -0.628909
  0.00000000D+00  0.00000000D+00  0.00000000D+00  0.00000000D+00  0.00000000D+00
  0.00000000D+00  0.00000000D+00  0.00000000D+00  0.00000000D+00 -0.00000000D+00
 -0.00000000D+00 -0.00000000D+00 -0.00000000D+00  0.00000000D+00  0.00000000D+00
  0.00000000D+00  0.00000000D+00  0.00000000D+00  0.30372426D+01  0.23973635D+01
  0.10096015D+01  0.00000000D+00  0.00000000D+00  0.00000000D+00  0.00000000D+00
  0.18047805D+00  0.00000000D+00  0.00000000D+00  0.00000000D+00  0.00000000D+00
  0.00000000D+00  0.00000000D+00 -0.83333547D-01  0.00000000D+00  0.00000000D+00
  0.00000000D+00  0.00000000D+00  0.00000000D+00  0.32595972D-01  0.00000000D+00
END DATA
 THE  HF ENERGY =   -100.019418702967 THE VIRIAL(-V/T)=   1.99993226
