 HF dist. exp., base Dolg-Filippi                        
GAUSSIAN              4 MOL ORBITALS     53 PRIMITIVES        2 NUCLEI
  F    1    (CENTRE  1)   0.00000000  0.00000000  0.17325009  CHARGE =  7.0
  H    2    (CENTRE  2)   0.00000000  0.00000000 -1.55925083  CHARGE =  1.0
CENTRE ASSIGNMENTS    1  1  1  1  1  1  1  1  1  1  1  1  1  1  1  1  1  1  1  1
CENTRE ASSIGNMENTS    1  1  1  1  1  1  1  1  1  1  1  1  1  1  1  1  1  1  1  1
CENTRE ASSIGNMENTS    1  1  1  1  1  1  2  2  2  2  2  2  2
TYPE ASSIGNMENTS      1  1  1  1  1  1  1  1  1  1  2  2  2  2  2  2  2  2  2  3
TYPE ASSIGNMENTS      3  3  3  3  3  3  3  3  4  4  4  4  4  4  4  4  4  2  3  4
TYPE ASSIGNMENTS      5  6  7  8  9 10  1  1  1  1  2  3  4
EXPONENTS  0.6850243D+02 0.3242735D+02 0.1535030D+02 0.7266451D+01 0.3439757D+01
EXPONENTS  0.1628295D+01 0.7707950D+00 0.3648750D+00 0.1727230D+00 0.3445690D+00
EXPONENTS  0.2843080D+02 0.1404774D+02 0.6941026D+01 0.3429580D+01 0.1694565D+01
EXPONENTS  0.8372890D+00 0.4137070D+00 0.2044140D+00 0.1010010D+00 0.2843080D+02
EXPONENTS  0.1404774D+02 0.6941026D+01 0.3429580D+01 0.1694565D+01 0.8372890D+00
EXPONENTS  0.4137070D+00 0.2044140D+00 0.1010010D+00 0.2843080D+02 0.1404774D+02
EXPONENTS  0.6941026D+01 0.3429580D+01 0.1694565D+01 0.8372890D+00 0.4137070D+00
EXPONENTS  0.2044140D+00 0.1010010D+00 0.3648310D+00 0.3648310D+00 0.3648310D+00
EXPONENTS  0.1722479D+01 0.1722479D+01 0.1722479D+01 0.1722479D+01 0.1722479D+01
EXPONENTS  0.1722479D+01 0.1301000D+02 0.1962000D+01 0.4446000D+00 0.1220000D+00
EXPONENTS  0.7270000D+00 0.7270000D+00 0.7270000D+00
MO    1     MO 0.0        OCC NO =    2.0000000  ORB. ENERGY =   -1.595001
 -0.20912271D-02  0.72683972D-02  0.46621899D-01 -0.37586320D+00  0.31287839D-01
  0.27319228D+00  0.24155551D+00  0.96440932D-01  0.12427026D-01 -0.10611894D-01
  0.00000000D+00  0.00000000D+00  0.00000000D+00  0.00000000D+00  0.00000000D+00
  0.00000000D+00  0.00000000D+00  0.00000000D+00  0.00000000D+00  0.00000000D+00
  0.00000000D+00  0.00000000D+00  0.00000000D+00  0.00000000D+00  0.00000000D+00
  0.00000000D+00  0.00000000D+00  0.00000000D+00 -0.30722482D-01 -0.15011370D+00
 -0.13819402D+00 -0.10963915D+00 -0.68177468D-01 -0.31802485D-01 -0.11461488D-01
 -0.26072231D-02 -0.27861238D-03  0.00000000D+00  0.00000000D+00  0.19229207D-01
 -0.12194968D-01 -0.12194968D-01  0.24389935D-01  0.00000000D+00  0.00000000D+00
  0.00000000D+00  0.28762954D-01  0.48788903D-01  0.55530238D-01 -0.16074492D-02
  0.00000000D+00  0.00000000D+00  0.40323951D-01
MO    2     MO 0.0        OCC NO =    2.0000000  ORB. ENERGY =   -0.758513
 -0.52804125D-03  0.18352925D-02  0.11772172D-01 -0.94906609D-01  0.79002751D-02
  0.68981887D-01  0.60993505D-01  0.24351631D-01  0.31378620D-02  0.45657370D-01
  0.00000000D+00  0.00000000D+00  0.00000000D+00  0.00000000D+00  0.00000000D+00
  0.00000000D+00  0.00000000D+00  0.00000000D+00  0.00000000D+00  0.00000000D+00
  0.00000000D+00  0.00000000D+00  0.00000000D+00  0.00000000D+00  0.00000000D+00
  0.00000000D+00  0.00000000D+00  0.00000000D+00  0.25715284D+00  0.12564793D+01
  0.11567094D+01  0.91769986D+00  0.57065797D+00  0.26619266D+00  0.95934770D-01
  0.21822938D-01  0.23320370D-02  0.00000000D+00  0.00000000D+00 -0.29333149D-01
  0.39007812D-01  0.39007812D-01 -0.78015624D-01  0.00000000D+00  0.00000000D+00
  0.00000000D+00 -0.63471242D-01 -0.10766252D+00 -0.12253864D+00 -0.30332527D-02
  0.00000000D+00  0.00000000D+00 -0.50208889D-01
MO    3     MO 0.0        OCC NO =    2.0000000  ORB. ENERGY =   -0.641530
 -0.00000000D+00  0.00000000D+00  0.00000000D+00 -0.00000000D+00  0.00000000D+00
  0.00000000D+00  0.00000000D+00  0.00000000D+00  0.00000000D+00  0.00000000D+00
  0.30557886D+00  0.14930946D+01  0.13745364D+01  0.10905175D+01  0.67812206D+00
  0.31632102D+00  0.11400083D+00  0.25932549D-01  0.27711971D-02  0.00000000D+00
  0.00000000D+00  0.00000000D+00  0.00000000D+00  0.00000000D+00  0.00000000D+00
  0.00000000D+00  0.00000000D+00  0.00000000D+00  0.00000000D+00  0.00000000D+00
  0.00000000D+00  0.00000000D+00  0.00000000D+00  0.00000000D+00  0.00000000D+00
  0.00000000D+00  0.00000000D+00  0.10578381D-01  0.00000000D+00  0.00000000D+00
  0.00000000D+00  0.00000000D+00  0.00000000D+00  0.00000000D+00 -0.86799442D-01
  0.00000000D+00  0.00000000D+00  0.00000000D+00  0.00000000D+00  0.00000000D+00
  0.33416676D-01  0.00000000D+00  0.00000000D+00
MO    4     MO 0.0        OCC NO =    2.0000000  ORB. ENERGY =   -0.641530
 -0.00000000D+00  0.00000000D+00  0.00000000D+00 -0.00000000D+00  0.00000000D+00
  0.00000000D+00  0.00000000D+00  0.00000000D+00  0.00000000D+00  0.00000000D+00
  0.00000000D+00  0.00000000D+00  0.00000000D+00  0.00000000D+00  0.00000000D+00
  0.00000000D+00  0.00000000D+00  0.00000000D+00  0.00000000D+00  0.30557886D+00
  0.14930946D+01  0.13745364D+01  0.10905175D+01  0.67812206D+00  0.31632102D+00
  0.11400083D+00  0.25932549D-01  0.27711971D-02  0.00000000D+00  0.00000000D+00
  0.00000000D+00  0.00000000D+00  0.00000000D+00  0.00000000D+00  0.00000000D+00
  0.00000000D+00  0.00000000D+00  0.00000000D+00  0.10578381D-01  0.00000000D+00
  0.00000000D+00  0.00000000D+00  0.00000000D+00  0.00000000D+00  0.00000000D+00
 -0.86799442D-01  0.00000000D+00  0.00000000D+00  0.00000000D+00  0.00000000D+00
  0.00000000D+00  0.33416676D-01  0.00000000D+00
END DATA
 THE  HF ENERGY =    -24.588976395417 THE VIRIAL(-V/T)=   2.26695604
