 HHeH - geom Daul et al. 1999 DMRG - Def2-TZVPPD - Triple
GAUSSIAN              4 MOL ORBITALS     60 PRIMITIVES        3 NUCLEI
  H    1    (CENTRE  1)   0.00000000  0.00000000  2.36215767  CHARGE =  1.0
  He   2    (CENTRE  2)   0.00000000  0.00000000  0.00000000  CHARGE =  2.0
  H    3    (CENTRE  3)   0.00000000  0.00000000 -2.36215767  CHARGE =  1.0
CENTRE ASSIGNMENTS    1  1  1  1  1  1  1  1  1  1  1  1  1  1  1  1  1  1  1  1
CENTRE ASSIGNMENTS    2  2  2  2  2  2  2  2  2  2  2  2  2  2  2  2  2  2  2  2
CENTRE ASSIGNMENTS    3  3  3  3  3  3  3  3  3  3  3  3  3  3  3  3  3  3  3  3
TYPE ASSIGNMENTS      1  1  1  1  1  2  3  4  2  3  4  2  3  4  5  6  7  8  9 10
TYPE ASSIGNMENTS      1  1  1  1  1  2  3  4  2  3  4  2  3  4  5  6  7  8  9 10
TYPE ASSIGNMENTS      1  1  1  1  1  2  3  4  2  3  4  2  3  4  5  6  7  8  9 10
EXPONENTS  0.3406134D+02 0.5123575D+01 0.1164663D+01 0.3272304D+00 0.1030724D+00
EXPONENTS  0.1407000D+01 0.1407000D+01 0.1407000D+01 0.3880000D+00 0.3880000D+00
EXPONENTS  0.3880000D+00 0.9577413D-01 0.9577413D-01 0.9577413D-01 0.1057000D+01
EXPONENTS  0.1057000D+01 0.1057000D+01 0.1057000D+01 0.1057000D+01 0.1057000D+01
EXPONENTS  0.9807832D+02 0.1476440D+02 0.3318583D+01 0.8741387D+00 0.2445990D+00
EXPONENTS  0.3044000D+01 0.3044000D+01 0.3044000D+01 0.7580000D+00 0.7580000D+00
EXPONENTS  0.7580000D+00 0.1940410D+00 0.1940410D+00 0.1940410D+00 0.1965000D+01
EXPONENTS  0.1965000D+01 0.1965000D+01 0.1965000D+01 0.1965000D+01 0.1965000D+01
EXPONENTS  0.3406134D+02 0.5123575D+01 0.1164663D+01 0.3272304D+00 0.1030724D+00
EXPONENTS  0.1407000D+01 0.1407000D+01 0.1407000D+01 0.3880000D+00 0.3880000D+00
EXPONENTS  0.3880000D+00 0.9577413D-01 0.9577413D-01 0.9577413D-01 0.1057000D+01
EXPONENTS  0.1057000D+01 0.1057000D+01 0.1057000D+01 0.1057000D+01 0.1057000D+01
MO    1     MO 0.0        OCC NO =    1.0000000  ORB. ENERGY =   -1.074012
  0.12478280D-01  0.22520755D-01  0.33248161D-01  0.22847015D-01  0.13748077D-02
  0.00000000D+00  0.00000000D+00 -0.14025743D-01  0.00000000D+00  0.00000000D+00
 -0.41787748D-02  0.00000000D+00  0.00000000D+00  0.52517506D-03 -0.31715676D-02
 -0.31715676D-02  0.63431353D-02  0.00000000D+00  0.00000000D+00  0.00000000D+00
  0.16258945D+00  0.28431744D+00  0.37353296D+00  0.30810206D+00  0.79996484D-01
  0.00000000D+00  0.00000000D+00  0.00000000D+00  0.00000000D+00  0.00000000D+00
  0.00000000D+00  0.00000000D+00  0.00000000D+00  0.00000000D+00 -0.54652543D-02
 -0.54652543D-02  0.10930509D-01  0.00000000D+00  0.00000000D+00  0.00000000D+00
  0.12478280D-01  0.22520755D-01  0.33248161D-01  0.22847015D-01  0.13748077D-02
  0.00000000D+00  0.00000000D+00  0.14025743D-01  0.00000000D+00  0.00000000D+00
  0.41787748D-02  0.00000000D+00  0.00000000D+00 -0.52517506D-03 -0.31715676D-02
 -0.31715676D-02  0.63431353D-02  0.00000000D+00  0.00000000D+00  0.00000000D+00
MO    2     MO 0.0        OCC NO =    1.0000000  ORB. ENERGY =   -0.504913
  0.44303415D-01  0.79958646D-01  0.11804568D+00  0.11478104D+00  0.36439383D-01
  0.00000000D+00  0.00000000D+00 -0.31643833D-03  0.00000000D+00  0.00000000D+00
  0.14224352D-02  0.00000000D+00  0.00000000D+00  0.76530904D-03 -0.19156941D-03
 -0.19156941D-03  0.38313883D-03  0.00000000D+00  0.00000000D+00  0.00000000D+00
  0.00000000D+00  0.00000000D+00  0.00000000D+00  0.00000000D+00  0.00000000D+00
  0.00000000D+00  0.00000000D+00  0.34508969D-01  0.00000000D+00  0.00000000D+00
  0.20415867D-01  0.00000000D+00  0.00000000D+00  0.15279776D-02  0.00000000D+00
  0.00000000D+00  0.00000000D+00  0.00000000D+00  0.00000000D+00  0.00000000D+00
 -0.44303415D-01 -0.79958646D-01 -0.11804568D+00 -0.11478104D+00 -0.36439383D-01
  0.00000000D+00  0.00000000D+00 -0.31643833D-03  0.00000000D+00  0.00000000D+00
  0.14224352D-02  0.00000000D+00  0.00000000D+00  0.76530904D-03  0.19156941D-03
  0.19156941D-03 -0.38313883D-03  0.00000000D+00  0.00000000D+00  0.00000000D+00
MO    3     MO 0.0        OCC NO =    1.0000000  ORB. ENERGY =   -0.399568
  0.41702066D-01  0.75263740D-01  0.11111443D+00  0.11718996D+00  0.42499470D-01
  0.00000000D+00  0.00000000D+00  0.11356816D-01  0.00000000D+00  0.00000000D+00
  0.53759419D-02  0.00000000D+00  0.00000000D+00  0.33602556D-02  0.12102288D-02
  0.12102288D-02 -0.24204576D-02  0.00000000D+00  0.00000000D+00  0.00000000D+00
 -0.72586157D-01 -0.12693019D+00 -0.16675941D+00 -0.15144789D+00 -0.86958192D-01
  0.00000000D+00  0.00000000D+00  0.00000000D+00  0.00000000D+00  0.00000000D+00
  0.00000000D+00  0.00000000D+00  0.00000000D+00  0.00000000D+00 -0.34017220D-02
 -0.34017220D-02  0.68034439D-02  0.00000000D+00  0.00000000D+00  0.00000000D+00
  0.41702066D-01  0.75263740D-01  0.11111443D+00  0.11718996D+00  0.42499470D-01
  0.00000000D+00  0.00000000D+00 -0.11356816D-01  0.00000000D+00  0.00000000D+00
 -0.53759419D-02  0.00000000D+00  0.00000000D+00 -0.33602556D-02  0.12102288D-02
  0.12102288D-02 -0.24204576D-02  0.00000000D+00  0.00000000D+00  0.00000000D+00
MO   52     MO 0.0        OCC NO =    1.0000000  ORB. ENERGY =   -0.986933
  0.64775588D-02  0.11690675D-01  0.17259343D-01  0.65624292D-02  0.77402480D-03
  0.00000000D+00  0.00000000D+00 -0.13404140D-01  0.00000000D+00  0.00000000D+00
 -0.41030252D-02  0.00000000D+00  0.00000000D+00  0.21623344D-03 -0.33828469D-02
 -0.33828469D-02  0.67656937D-02  0.00000000D+00  0.00000000D+00  0.00000000D+00
  0.16158586D+00  0.28256246D+00  0.37122729D+00  0.30802851D+00  0.93795722D-01
  0.00000000D+00  0.00000000D+00  0.00000000D+00  0.00000000D+00  0.00000000D+00
  0.00000000D+00  0.00000000D+00  0.00000000D+00  0.00000000D+00 -0.53680309D-02
 -0.53680309D-02  0.10736062D-01  0.00000000D+00  0.00000000D+00  0.00000000D+00
  0.64775588D-02  0.11690675D-01  0.17259343D-01  0.65624292D-02  0.77402480D-03
  0.00000000D+00  0.00000000D+00  0.13404140D-01  0.00000000D+00  0.00000000D+00
  0.41030252D-02  0.00000000D+00  0.00000000D+00 -0.21623344D-03 -0.33828469D-02
 -0.33828469D-02  0.67656937D-02  0.00000000D+00  0.00000000D+00  0.00000000D+00
END DATA
 TOTAL ENERGY =       -3.774889298186 THE VIRIAL(-V/T)=   1.92468570
