 HHeH - geom Daul et al. 1999 DMRG - Def2-TZVP - Triplet 
GAUSSIAN              3 MOL ORBITALS     24 PRIMITIVES        3 NUCLEI
  H    1    (CENTRE  1)   0.00000000  0.00000000  2.36215767  CHARGE =  1.0
  He   2    (CENTRE  2)   0.00000000  0.00000000  0.00000000  CHARGE =  2.0
  H    3    (CENTRE  3)   0.00000000  0.00000000 -2.36215767  CHARGE =  1.0
CENTRE ASSIGNMENTS    1  1  1  1  1  1  1  1  2  2  2  2  2  2  2  2  3  3  3  3
CENTRE ASSIGNMENTS    3  3  3  3
TYPE ASSIGNMENTS      1  1  1  1  1  2  3  4  1  1  1  1  1  2  3  4  1  1  1  1
TYPE ASSIGNMENTS      1  2  3  4
EXPONENTS  0.3406134D+02 0.5123575D+01 0.1164663D+01 0.3272304D+00 0.1030724D+00
EXPONENTS  0.8000000D+00 0.8000000D+00 0.8000000D+00 0.9807832D+02 0.1476440D+02
EXPONENTS  0.3318583D+01 0.8741387D+00 0.2445990D+00 0.1000000D+01 0.1000000D+01
EXPONENTS  0.1000000D+01 0.3406134D+02 0.5123575D+01 0.1164663D+01 0.3272304D+00
EXPONENTS  0.1030724D+00 0.8000000D+00 0.8000000D+00 0.8000000D+00
MO    1     MO 0.0        OCC NO =    2.0000000  ORB. ENERGY =   -1.011327
  0.76063583D-02  0.13727928D-01  0.20267010D-01  0.93918009D-02 -0.10485585D-02
  0.00000000D+00  0.00000000D+00 -0.13810761D-01  0.16473109D+00  0.28806248D+00
  0.37845315D+00  0.31571368D+00  0.91306952D-01  0.00000000D+00  0.00000000D+00
  0.00000000D+00  0.76063583D-02  0.13727928D-01  0.20267010D-01  0.93918009D-02
 -0.10485585D-02  0.00000000D+00  0.00000000D+00  0.13810761D-01
MO    2     MO 0.0        OCC NO =    1.0000000  ORB. ENERGY =   -0.123740
  0.44269940D-01  0.79898230D-01  0.11795649D+00  0.11571411D+00  0.37935914D-01
  0.00000000D+00  0.00000000D+00  0.36004357D-03  0.00000000D+00  0.00000000D+00
  0.00000000D+00  0.00000000D+00  0.00000000D+00  0.00000000D+00  0.00000000D+00
  0.31088284D-01 -0.44269940D-01 -0.79898230D-01 -0.11795649D+00 -0.11571411D+00
 -0.37935914D-01  0.00000000D+00  0.00000000D+00  0.36004357D-03
MO    3     MO 0.0        OCC NO =    1.0000000  ORB. ENERGY =   -0.065169
 -0.42366715D-01 -0.76463297D-01 -0.11288538D+00 -0.12240440D+00 -0.44281627D-01
  0.00000000D+00  0.00000000D+00 -0.95905169D-02  0.60308236D-01  0.10546000D+00
  0.13855212D+00  0.11508557D+00  0.10322691D+00  0.00000000D+00  0.00000000D+00
  0.00000000D+00 -0.42366715D-01 -0.76463297D-01 -0.11288538D+00 -0.12240440D+00
 -0.44281627D-01  0.00000000D+00  0.00000000D+00  0.95905169D-02
END DATA
 TOTAL ENERGY =       -3.772519732183 THE VIRIAL(-V/T)=   1.92115607
