 HHeH - geom Daul et al. 1999 DMRG - Def2-TZVP - Triplet 
GAUSSIAN              4 MOL ORBITALS     24 PRIMITIVES        3 NUCLEI
  H    1    (CENTRE  1)   0.00000000  0.00000000  2.36215767  CHARGE =  1.0
  He   2    (CENTRE  2)   0.00000000  0.00000000  0.00000000  CHARGE =  2.0
  H    3    (CENTRE  3)   0.00000000  0.00000000 -2.36215767  CHARGE =  1.0
CENTRE ASSIGNMENTS    1  1  1  1  1  1  1  1  2  2  2  2  2  2  2  2  3  3  3  3
CENTRE ASSIGNMENTS    3  3  3  3
TYPE ASSIGNMENTS      1  1  1  1  1  2  3  4  1  1  1  1  1  2  3  4  1  1  1  1
TYPE ASSIGNMENTS      1  2  3  4
EXPONENTS  0.3406134D+02 0.5123575D+01 0.1164663D+01 0.3272304D+00 0.1030724D+00
EXPONENTS  0.8000000D+00 0.8000000D+00 0.8000000D+00 0.9807832D+02 0.1476440D+02
EXPONENTS  0.3318583D+01 0.8741387D+00 0.2445990D+00 0.1000000D+01 0.1000000D+01
EXPONENTS  0.1000000D+01 0.3406134D+02 0.5123575D+01 0.1164663D+01 0.3272304D+00
EXPONENTS  0.1030724D+00 0.8000000D+00 0.8000000D+00 0.8000000D+00
MO    1     MO 0.0        OCC NO =    1.0000000  ORB. ENERGY =   -1.071013
  0.12483793D-01  0.22530705D-01  0.33262851D-01  0.23014084D-01  0.12967918D-02
  0.00000000D+00  0.00000000D+00 -0.13668218D-01  0.16232239D+00  0.28385042D+00
  0.37291940D+00  0.31082710D+00  0.78533371D-01  0.00000000D+00  0.00000000D+00
  0.00000000D+00  0.12483793D-01  0.22530705D-01  0.33262851D-01  0.23014084D-01
  0.12967918D-02  0.00000000D+00  0.00000000D+00  0.13668218D-01
MO    2     MO 0.0        OCC NO =    1.0000000  ORB. ENERGY =   -0.503456
  0.44354031D-01  0.80049997D-01  0.11818055D+00  0.11588303D+00  0.37786205D-01
  0.00000000D+00  0.00000000D+00  0.18884527D-03  0.00000000D+00  0.00000000D+00
  0.00000000D+00  0.00000000D+00  0.00000000D+00  0.00000000D+00  0.00000000D+00
  0.31402204D-01 -0.44354031D-01 -0.80049997D-01 -0.11818055D+00 -0.11588303D+00
 -0.37786205D-01  0.00000000D+00  0.00000000D+00  0.18884527D-03
MO    3     MO 0.0        OCC NO =    1.0000000  ORB. ENERGY =   -0.398533
 -0.41456419D-01 -0.74820397D-01 -0.11045991D+00 -0.12033901D+00 -0.44414243D-01
  0.00000000D+00  0.00000000D+00 -0.10710683D-01  0.74673038D-01  0.13057948D+00
  0.17155381D+00  0.14304449D+00  0.10918915D+00  0.00000000D+00  0.00000000D+00
  0.00000000D+00 -0.41456419D-01 -0.74820397D-01 -0.11045991D+00 -0.12033901D+00
 -0.44414243D-01  0.00000000D+00  0.00000000D+00  0.10710683D-01
MO   19     MO 0.0        OCC NO =    1.0000000  ORB. ENERGY =   -0.981672
  0.65361101D-02  0.11796348D-01  0.17415352D-01  0.63740087D-02  0.59569397D-03
  0.00000000D+00  0.00000000D+00 -0.12984052D-01  0.16117317D+00  0.28184081D+00
  0.37027919D+00  0.30883980D+00  0.94709924D-01  0.00000000D+00  0.00000000D+00
  0.00000000D+00  0.65361101D-02  0.11796348D-01  0.17415352D-01  0.63740087D-02
  0.59569397D-03  0.00000000D+00  0.00000000D+00  0.12984052D-01
END DATA
 TOTAL ENERGY =       -3.773441135841 THE VIRIAL(-V/T)=   1.92197508
