 Li3(-) - geom CCSD / Def2-TZVPPD - Base Def2-TZVPPD
GAUSSIAN              5 MOL ORBITALS     87 PRIMITIVES        3 NUCLEI
  Li   1    (CENTRE  1)   0.00000000  0.00000000  5.75337326  CHARGE =  3.0
  Li   2    (CENTRE  2)   0.00000000  0.00000000  0.00000000  CHARGE =  3.0
  Li   3    (CENTRE  3)   0.00000000  0.00000000 -5.75337326  CHARGE =  3.0
CENTRE ASSIGNMENTS    1  1  1  1  1  1  1  1  1  1  1  1  1  1  1  1  1  1  1  1
CENTRE ASSIGNMENTS    1  1  1  1  1  1  1  1  1  2  2  2  2  2  2  2  2  2  2  2
CENTRE ASSIGNMENTS    2  2  2  2  2  2  2  2  2  2  2  2  2  2  2  2  2  2  3  3
CENTRE ASSIGNMENTS    3  3  3  3  3  3  3  3  3  3  3  3  3  3  3  3  3  3  3  3
CENTRE ASSIGNMENTS    3  3  3  3  3  3  3
TYPE ASSIGNMENTS      1  1  1  1  1  1  1  1  1  1  1  2  3  4  2  3  4  2  3  4
TYPE ASSIGNMENTS      2  3  4  5  6  7  8  9 10  1  1  1  1  1  1  1  1  1  1  1
TYPE ASSIGNMENTS      2  3  4  2  3  4  2  3  4  2  3  4  5  6  7  8  9 10  1  1
TYPE ASSIGNMENTS      1  1  1  1  1  1  1  1  1  2  3  4  2  3  4  2  3  4  2  3
TYPE ASSIGNMENTS      4  5  6  7  8  9 10
EXPONENTS  0.6269263D+04 0.9403161D+03 0.2142211D+03 0.6075984D+02 0.1991515D+02
EXPONENTS  0.7317151D+01 0.2972467D+01 0.1263985D+01 0.5142749D+00 0.7703089D-01
EXPONENTS  0.2893890D-01 0.4000000D+00 0.4000000D+00 0.4000000D+00 0.6000000D-01
EXPONENTS  0.6000000D-01 0.6000000D-01 0.3327000D+01 0.3327000D+01 0.3327000D+01
EXPONENTS  0.2009723D-01 0.2009723D-01 0.2009723D-01 0.1319000D+00 0.1319000D+00
EXPONENTS  0.1319000D+00 0.1319000D+00 0.1319000D+00 0.1319000D+00 0.6269263D+04
EXPONENTS  0.9403161D+03 0.2142211D+03 0.6075984D+02 0.1991515D+02 0.7317151D+01
EXPONENTS  0.2972467D+01 0.1263985D+01 0.5142749D+00 0.7703089D-01 0.2893890D-01
EXPONENTS  0.4000000D+00 0.4000000D+00 0.4000000D+00 0.6000000D-01 0.6000000D-01
EXPONENTS  0.6000000D-01 0.3327000D+01 0.3327000D+01 0.3327000D+01 0.2009723D-01
EXPONENTS  0.2009723D-01 0.2009723D-01 0.1319000D+00 0.1319000D+00 0.1319000D+00
EXPONENTS  0.1319000D+00 0.1319000D+00 0.1319000D+00 0.6269263D+04 0.9403161D+03
EXPONENTS  0.2142211D+03 0.6075984D+02 0.1991515D+02 0.7317151D+01 0.2972467D+01
EXPONENTS  0.1263985D+01 0.5142749D+00 0.7703089D-01 0.2893890D-01 0.4000000D+00
EXPONENTS  0.4000000D+00 0.4000000D+00 0.6000000D-01 0.6000000D-01 0.6000000D-01
EXPONENTS  0.3327000D+01 0.3327000D+01 0.3327000D+01 0.2009723D-01 0.2009723D-01
EXPONENTS  0.2009723D-01 0.1319000D+00 0.1319000D+00 0.1319000D+00 0.1319000D+00
EXPONENTS  0.1319000D+00 0.1319000D+00
MO    1     MO 0.0        OCC NO =    2.0000000  ORB. ENERGY =   -2.334233
  0.13210745D-03  0.24671667D-03  0.42358163D-03  0.67258463D-03  0.95550050D-03
  0.11147645D-02  0.92006178D-03  0.62648275D-03  0.29614718D-03 -0.12061976D-03
  0.95516679D-04  0.00000000D+00  0.00000000D+00  0.57301104D-04  0.00000000D+00
  0.00000000D+00  0.40955204D-04  0.00000000D+00  0.00000000D+00 -0.56360299D-04
  0.00000000D+00  0.00000000D+00 -0.11033145D-04  0.95234246D-05  0.95234246D-05
 -0.19046849D-04  0.00000000D+00  0.00000000D+00  0.00000000D+00  0.62891169D-01
  0.11745212D+00  0.20165058D+00  0.32019113D+00  0.45487627D+00  0.53069560D+00
  0.47684577D+00  0.32469085D+00  0.93993071D-01  0.11319011D-02 -0.31850409D-03
  0.00000000D+00  0.00000000D+00  0.00000000D+00  0.00000000D+00  0.00000000D+00
  0.00000000D+00  0.00000000D+00  0.00000000D+00  0.00000000D+00  0.00000000D+00
  0.00000000D+00  0.00000000D+00 -0.26421107D-04 -0.26421107D-04  0.52842213D-04
  0.00000000D+00  0.00000000D+00  0.00000000D+00  0.13210745D-03  0.24671667D-03
  0.42358163D-03  0.67258463D-03  0.95550050D-03  0.11147645D-02  0.92006178D-03
  0.62648275D-03  0.29614718D-03 -0.12061976D-03  0.95516679D-04  0.00000000D+00
  0.00000000D+00 -0.57301104D-04  0.00000000D+00  0.00000000D+00 -0.40955204D-04
  0.00000000D+00  0.00000000D+00  0.56360299D-04  0.00000000D+00  0.00000000D+00
  0.11033145D-04  0.95234246D-05  0.95234246D-05 -0.19046849D-04  0.00000000D+00
  0.00000000D+00  0.00000000D+00
MO    2     MO 0.0        OCC NO =    2.0000000  ORB. ENERGY =   -2.317058
  0.44455301D-01  0.83022296D-01  0.14253889D+00  0.22633056D+00  0.32153420D+00
  0.37512791D+00  0.33725217D+00  0.22963965D+00  0.66463429D-01  0.83303974D-03
 -0.19185133D-03  0.00000000D+00  0.00000000D+00  0.63112263D-03  0.00000000D+00
  0.00000000D+00 -0.10394917D-03  0.00000000D+00  0.00000000D+00  0.28489527D-02
  0.00000000D+00  0.00000000D+00  0.13386185D-04 -0.15495590D-04 -0.15495590D-04
  0.30991180D-04  0.00000000D+00  0.00000000D+00  0.00000000D+00  0.00000000D+00
  0.00000000D+00  0.00000000D+00  0.00000000D+00  0.00000000D+00  0.00000000D+00
  0.00000000D+00  0.00000000D+00  0.00000000D+00  0.00000000D+00  0.00000000D+00
  0.00000000D+00  0.00000000D+00 -0.37535384D-04  0.00000000D+00  0.00000000D+00
 -0.17265125D-03  0.00000000D+00  0.00000000D+00  0.63211193D-04  0.00000000D+00
  0.00000000D+00  0.23174167D-04  0.00000000D+00  0.00000000D+00  0.00000000D+00
  0.00000000D+00  0.00000000D+00  0.00000000D+00 -0.44455301D-01 -0.83022296D-01
 -0.14253889D+00 -0.22633056D+00 -0.32153420D+00 -0.37512791D+00 -0.33725217D+00
 -0.22963965D+00 -0.66463429D-01 -0.83303974D-03  0.19185133D-03  0.00000000D+00
  0.00000000D+00  0.63112263D-03  0.00000000D+00  0.00000000D+00 -0.10394917D-03
  0.00000000D+00  0.00000000D+00  0.28489527D-02  0.00000000D+00  0.00000000D+00
  0.13386185D-04  0.15495590D-04  0.15495590D-04 -0.30991180D-04  0.00000000D+00
  0.00000000D+00  0.00000000D+00
MO    3     MO 0.0        OCC NO =    2.0000000  ORB. ENERGY =   -2.317057
  0.44459279D-01  0.83029725D-01  0.14255164D+00  0.22635081D+00  0.32156297D+00
  0.37516148D+00  0.33715990D+00  0.22957682D+00  0.66630201D-01  0.62699084D-03
 -0.15796078D-03  0.00000000D+00  0.00000000D+00  0.62886271D-03  0.00000000D+00
  0.00000000D+00 -0.30380330D-04  0.00000000D+00  0.00000000D+00  0.28470366D-02
  0.00000000D+00  0.00000000D+00  0.92304624D-05 -0.65651967D-05 -0.65651967D-05
  0.13130393D-04  0.00000000D+00  0.00000000D+00  0.00000000D+00 -0.19529442D-03
 -0.36472120D-03 -0.62618065D-03 -0.99428174D-03 -0.14125162D-02 -0.16479562D-02
 -0.15289990D-02 -0.10411165D-02 -0.21222575D-03 -0.19732888D-03  0.17726788D-03
  0.00000000D+00  0.00000000D+00  0.00000000D+00  0.00000000D+00  0.00000000D+00
  0.00000000D+00  0.00000000D+00  0.00000000D+00  0.00000000D+00  0.00000000D+00
  0.00000000D+00  0.00000000D+00 -0.20572840D-05 -0.20572840D-05  0.41145680D-05
  0.00000000D+00  0.00000000D+00  0.00000000D+00  0.44459279D-01  0.83029725D-01
  0.14255164D+00  0.22635081D+00  0.32156297D+00  0.37516148D+00  0.33715990D+00
  0.22957682D+00  0.66630201D-01  0.62699084D-03 -0.15796078D-03  0.00000000D+00
  0.00000000D+00 -0.62886271D-03  0.00000000D+00  0.00000000D+00  0.30380330D-04
  0.00000000D+00  0.00000000D+00 -0.28470366D-02  0.00000000D+00  0.00000000D+00
 -0.92304624D-05 -0.65651967D-05 -0.65651967D-05  0.13130393D-04  0.00000000D+00
  0.00000000D+00  0.00000000D+00
MO    4     MO 0.0        OCC NO =    2.0000000  ORB. ENERGY =   -0.070538
 -0.50237847D-02 -0.93821463D-02 -0.16107971D-01 -0.25577062D-01 -0.36335792D-01
 -0.42392286D-01 -0.49645305D-01 -0.33804172D-01 -0.25889065D-01  0.15800665D-01
  0.17146747D-01  0.00000000D+00  0.00000000D+00 -0.64457692D-02  0.00000000D+00
  0.00000000D+00 -0.21371497D-02  0.00000000D+00  0.00000000D+00 -0.81822026D-02
  0.00000000D+00  0.00000000D+00  0.30729904D-03 -0.10478792D-03 -0.10478792D-03
  0.20957584D-03  0.00000000D+00  0.00000000D+00  0.00000000D+00 -0.61251078D-02
 -0.11438917D-01 -0.19639189D-01 -0.31184111D-01 -0.44301390D-01 -0.51685600D-01
 -0.59428087D-01 -0.40465404D-01 -0.32041212D-01  0.17877248D-01  0.12572387D-01
  0.00000000D+00  0.00000000D+00  0.00000000D+00  0.00000000D+00  0.00000000D+00
  0.00000000D+00  0.00000000D+00  0.00000000D+00  0.00000000D+00  0.00000000D+00
  0.00000000D+00  0.00000000D+00 -0.61186282D-03 -0.61186282D-03  0.12237256D-02
  0.00000000D+00  0.00000000D+00  0.00000000D+00 -0.50237847D-02 -0.93821463D-02
 -0.16107971D-01 -0.25577062D-01 -0.36335792D-01 -0.42392286D-01 -0.49645305D-01
 -0.33804172D-01 -0.25889065D-01  0.15800665D-01  0.17146747D-01  0.00000000D+00
  0.00000000D+00  0.64457692D-02  0.00000000D+00  0.00000000D+00  0.21371497D-02
  0.00000000D+00  0.00000000D+00  0.81822026D-02  0.00000000D+00  0.00000000D+00
 -0.30729904D-03 -0.10478792D-03 -0.10478792D-03  0.20957584D-03  0.00000000D+00
  0.00000000D+00  0.00000000D+00
MO    5     MO 0.0        OCC NO =    2.0000000  ORB. ENERGY =   -0.034030
 -0.58936923D-02 -0.11006738D-01 -0.18897192D-01 -0.30005930D-01 -0.42627619D-01
 -0.49732842D-01 -0.56572608D-01 -0.38521068D-01 -0.33445401D-01  0.23312062D-01
  0.23815983D-02  0.00000000D+00  0.00000000D+00 -0.41393631D-02  0.00000000D+00
  0.00000000D+00 -0.30160861D-03  0.00000000D+00  0.00000000D+00 -0.55730013D-02
  0.00000000D+00  0.00000000D+00  0.17930339D-02 -0.19061999D-03 -0.19061999D-03
  0.38123998D-03  0.00000000D+00  0.00000000D+00  0.00000000D+00  0.00000000D+00
  0.00000000D+00  0.00000000D+00  0.00000000D+00  0.00000000D+00  0.00000000D+00
  0.00000000D+00  0.00000000D+00  0.00000000D+00  0.00000000D+00  0.00000000D+00
  0.00000000D+00  0.00000000D+00  0.20780298D-01  0.00000000D+00  0.00000000D+00
  0.87361875D-02  0.00000000D+00  0.00000000D+00  0.25228622D-01  0.00000000D+00
  0.00000000D+00  0.48864161D-02  0.00000000D+00  0.00000000D+00  0.00000000D+00
  0.00000000D+00  0.00000000D+00  0.00000000D+00  0.58936923D-02  0.11006738D-01
  0.18897192D-01  0.30005930D-01  0.42627619D-01  0.49732842D-01  0.56572608D-01
  0.38521068D-01  0.33445401D-01 -0.23312062D-01 -0.23815983D-02  0.00000000D+00
  0.00000000D+00 -0.41393631D-02  0.00000000D+00  0.00000000D+00 -0.30160861D-03
  0.00000000D+00  0.00000000D+00 -0.55730013D-02  0.00000000D+00  0.00000000D+00
  0.17930339D-02  0.19061999D-03  0.19061999D-03 -0.38123998D-03  0.00000000D+00
  0.00000000D+00  0.00000000D+00
END DATA
 TOTAL ENERGY =      -22.323296400303 THE VIRIAL(-V/T)=   1.99877979
