 Li3(-) - geom CCSD / Def2-TZVPPD - Base VTZ_ANO Dolg-Fil
GAUSSIAN              2 MOL ORBITALS     93 PRIMITIVES        3 NUCLEI
  Li   1    (CENTRE  1)   0.00000000  0.00000000  5.75337326  CHARGE =  1.0
  Li   2    (CENTRE  2)   0.00000000  0.00000000  0.00000000  CHARGE =  1.0
  Li   3    (CENTRE  3)   0.00000000  0.00000000 -5.75337326  CHARGE =  1.0
CENTRE ASSIGNMENTS    1  1  1  1  1  1  1  1  1  1  1  1  1  1  1  1  1  1  1  1
CENTRE ASSIGNMENTS    1  1  1  1  1  1  1  1  1  1  1  2  2  2  2  2  2  2  2  2
CENTRE ASSIGNMENTS    2  2  2  2  2  2  2  2  2  2  2  2  2  2  2  2  2  2  2  2
CENTRE ASSIGNMENTS    2  2  3  3  3  3  3  3  3  3  3  3  3  3  3  3  3  3  3  3
CENTRE ASSIGNMENTS    3  3  3  3  3  3  3  3  3  3  3  3  3
TYPE ASSIGNMENTS      1  1  1  1  1  1  1  1  1  1  1  1  1  2  2  2  3  3  3  4
TYPE ASSIGNMENTS      4  4  2  3  4  5  6  7  8  9 10  1  1  1  1  1  1  1  1  1
TYPE ASSIGNMENTS      1  1  1  1  2  2  2  3  3  3  4  4  4  2  3  4  5  6  7  8
TYPE ASSIGNMENTS      9 10  1  1  1  1  1  1  1  1  1  1  1  1  1  2  2  2  3  3
TYPE ASSIGNMENTS      3  4  4  4  2  3  4  5  6  7  8  9 10
EXPONENTS  0.7259950D+00 0.1103130D+00 0.4887400D-01 0.2176800D-01 0.7259950D+00
EXPONENTS  0.3092510D+00 0.1103130D+00 0.2176800D-01 0.1865990D+01 0.7259950D+00
EXPONENTS  0.3092510D+00 0.1103130D+00 0.2805000D-01 0.1534000D+01 0.2749000D+00
EXPONENTS  0.7362000D-01 0.1534000D+01 0.2749000D+00 0.7362000D-01 0.1534000D+01
EXPONENTS  0.2749000D+00 0.7362000D-01 0.2403000D-01 0.2403000D-01 0.2403000D-01
EXPONENTS  0.1239000D+00 0.1239000D+00 0.1239000D+00 0.1239000D+00 0.1239000D+00
EXPONENTS  0.1239000D+00 0.7259950D+00 0.1103130D+00 0.4887400D-01 0.2176800D-01
EXPONENTS  0.7259950D+00 0.3092510D+00 0.1103130D+00 0.2176800D-01 0.1865990D+01
EXPONENTS  0.7259950D+00 0.3092510D+00 0.1103130D+00 0.2805000D-01 0.1534000D+01
EXPONENTS  0.2749000D+00 0.7362000D-01 0.1534000D+01 0.2749000D+00 0.7362000D-01
EXPONENTS  0.1534000D+01 0.2749000D+00 0.7362000D-01 0.2403000D-01 0.2403000D-01
EXPONENTS  0.2403000D-01 0.1239000D+00 0.1239000D+00 0.1239000D+00 0.1239000D+00
EXPONENTS  0.1239000D+00 0.1239000D+00 0.7259950D+00 0.1103130D+00 0.4887400D-01
EXPONENTS  0.2176800D-01 0.7259950D+00 0.3092510D+00 0.1103130D+00 0.2176800D-01
EXPONENTS  0.1865990D+01 0.7259950D+00 0.3092510D+00 0.1103130D+00 0.2805000D-01
EXPONENTS  0.1534000D+01 0.2749000D+00 0.7362000D-01 0.1534000D+01 0.2749000D+00
EXPONENTS  0.7362000D-01 0.1534000D+01 0.2749000D+00 0.7362000D-01 0.2403000D-01
EXPONENTS  0.2403000D-01 0.2403000D-01 0.1239000D+00 0.1239000D+00 0.1239000D+00
EXPONENTS  0.1239000D+00 0.1239000D+00 0.1239000D+00
CENTRE ASSIGNMENTS    1  1  1  1  1  1  1  1  1  1  1  1  1  1  1  1  1  1  1  1
CENTRE ASSIGNMENTS    1  1  2  2  2  2  2  2  2  2  2  2  2  2  2  2  2  2  2  2
CENTRE ASSIGNMENTS    2  2  2  2  3  3  3  3  3  3  3  3  3  3  3  3  3  3  3  3
CENTRE ASSIGNMENTS    3  3  3  3  3  3
TYPE ASSIGNMENTS      1  1  1  1  1  1  1  1  1  1  1  1  1  1  1  1  1  1  1  1
TYPE ASSIGNMENTS      1  1  1  1  1  1  1  1  1  1  1  1  1  1  1  1  1  1  1  1
TYPE ASSIGNMENTS      1  1  1  1  1  1  1  1  1  1  1  1  1  1  1  1  1  1  1  1
TYPE ASSIGNMENTS      1  1  1  1  1  1
EXPONENTS  0.4039907D+06 0.2063125D+06 0.1053609D+06 0.5380637D+05 0.2747817D+05
EXPONENTS  0.1403272D+05 0.7166317D+04 0.3659739D+04 0.1868978D+04 0.9544614D+03
EXPONENTS  0.4874302D+03 0.2489239D+03 0.1271220D+03 0.6491944D+02 0.3315346D+02
EXPONENTS  0.1693102D+02 0.8646436D+01 0.4415615D+01 0.2254994D+01 0.1151594D+01
EXPONENTS  0.5881032D+00 0.3003362D+00 0.4039907D+06 0.2063125D+06 0.1053609D+06
EXPONENTS  0.5380637D+05 0.2747817D+05 0.1403272D+05 0.7166317D+04 0.3659739D+04
EXPONENTS  0.1868978D+04 0.9544614D+03 0.4874302D+03 0.2489239D+03 0.1271220D+03
EXPONENTS  0.6491944D+02 0.3315346D+02 0.1693102D+02 0.8646436D+01 0.4415615D+01
EXPONENTS  0.2254994D+01 0.1151594D+01 0.5881032D+00 0.3003362D+00 0.4039907D+06
EXPONENTS  0.2063125D+06 0.1053609D+06 0.5380637D+05 0.2747817D+05 0.1403272D+05
EXPONENTS  0.7166317D+04 0.3659739D+04 0.1868978D+04 0.9544614D+03 0.4874302D+03
EXPONENTS  0.2489239D+03 0.1271220D+03 0.6491944D+02 0.3315346D+02 0.1693102D+02
EXPONENTS  0.8646436D+01 0.4415615D+01 0.2254994D+01 0.1151594D+01 0.5881032D+00
EXPONENTS  0.3003362D+00
MO    1     MO 0.0        OCC NO =    2.0000000  ORB. ENERGY =   -0.071091
  0.54525019D-03  0.14068739D-01 -0.16469526D-01  0.11854672D-02  0.22100325D-02
  0.76826385D-02  0.14701658D-02 -0.13693908D-01 -0.54432713D-02  0.21511005D-01
  0.85084559D-02 -0.31173459D-01  0.58732815D-02  0.00000000D+00  0.00000000D+00
  0.00000000D+00  0.00000000D+00  0.00000000D+00  0.00000000D+00  0.52097241D-02
  0.37082305D-02  0.25698353D-02  0.00000000D+00  0.00000000D+00 -0.20665970D-03
  0.11161551D-03  0.11161551D-03 -0.22323102D-03  0.00000000D+00  0.00000000D+00
  0.00000000D+00  0.62608953D-03  0.16154584D-01 -0.18911315D-01  0.13612258D-02
  0.27707755D-02  0.96319246D-02  0.18431853D-02 -0.17168410D-01 -0.62230636D-02
  0.24592628D-01  0.97273604D-02 -0.35639307D-01  0.15822603D-01  0.00000000D+00
  0.00000000D+00  0.00000000D+00  0.00000000D+00  0.00000000D+00  0.00000000D+00
  0.00000000D+00  0.00000000D+00  0.00000000D+00  0.00000000D+00  0.00000000D+00
  0.00000000D+00  0.30434253D-03  0.30434253D-03 -0.60868506D-03  0.00000000D+00
  0.00000000D+00  0.00000000D+00  0.54525019D-03  0.14068739D-01 -0.16469526D-01
  0.11854672D-02  0.22100325D-02  0.76826385D-02  0.14701658D-02 -0.13693908D-01
 -0.54432713D-02  0.21511005D-01  0.85084559D-02 -0.31173459D-01  0.58732815D-02
  0.00000000D+00  0.00000000D+00  0.00000000D+00  0.00000000D+00  0.00000000D+00
  0.00000000D+00 -0.52097241D-02 -0.37082305D-02 -0.25698353D-02  0.00000000D+00
  0.00000000D+00  0.20665970D-03  0.11161551D-03  0.11161551D-03 -0.22323102D-03
  0.00000000D+00  0.00000000D+00  0.00000000D+00
MO    2     MO 0.0        OCC NO =    2.0000000  ORB. ENERGY =   -0.035383
  0.33951179D-03  0.87602036D-02 -0.10255106D-01  0.73815673D-03  0.35488493D-02
  0.12336708D-01  0.23607784D-02 -0.21989548D-01 -0.59425152D-02  0.23483943D-01
  0.92888312D-02 -0.34032614D-01  0.71923634D-02  0.00000000D+00  0.00000000D+00
  0.00000000D+00  0.00000000D+00  0.00000000D+00  0.00000000D+00  0.23171245D-02
  0.16493065D-02  0.11429834D-02  0.00000000D+00  0.00000000D+00 -0.52489623D-03
  0.36729250D-04  0.36729250D-04 -0.73458499D-04  0.00000000D+00  0.00000000D+00
  0.00000000D+00 -0.00000000D+00 -0.00000000D+00  0.00000000D+00 -0.00000000D+00
  0.00000000D+00  0.00000000D+00  0.00000000D+00 -0.00000000D+00 -0.00000000D+00
  0.00000000D+00  0.00000000D+00 -0.00000000D+00  0.00000000D+00  0.00000000D+00
  0.00000000D+00  0.00000000D+00  0.00000000D+00  0.00000000D+00  0.00000000D+00
 -0.18225261D-01 -0.12972562D-01 -0.89900962D-02  0.00000000D+00  0.00000000D+00
 -0.14761406D-02  0.00000000D+00  0.00000000D+00  0.00000000D+00  0.00000000D+00
  0.00000000D+00  0.00000000D+00 -0.33951179D-03 -0.87602036D-02  0.10255106D-01
 -0.73815673D-03 -0.35488493D-02 -0.12336708D-01 -0.23607784D-02  0.21989548D-01
  0.59425152D-02 -0.23483943D-01 -0.92888312D-02  0.34032614D-01 -0.71923634D-02
  0.00000000D+00  0.00000000D+00  0.00000000D+00  0.00000000D+00  0.00000000D+00
  0.00000000D+00  0.23171245D-02  0.16493065D-02  0.11429834D-02  0.00000000D+00
  0.00000000D+00 -0.52489623D-03 -0.36729250D-04 -0.36729250D-04  0.73458499D-04
  0.00000000D+00  0.00000000D+00  0.00000000D+00
END DATA
 TOTAL ENERGY =       -0.615595408769 THE VIRIAL(-V/T)=   3.37114925
