 LiH - geom Experimentale - base Def2TZVP (allE)
GAUSSIAN              2 MOL ORBITALS     28 PRIMITIVES        2 NUCLEI
  H    1    (CENTRE  1)   0.00000000  0.00000000 -2.26058489  CHARGE =  1.0
  Li   2    (CENTRE  2)   0.00000000  0.00000000  0.75352830  CHARGE =  3.0
CENTRE ASSIGNMENTS    1  1  1  1  1  1  1  1  2  2  2  2  2  2  2  2  2  2  2  2
CENTRE ASSIGNMENTS    2  2  2  2  2  2  2  2
TYPE ASSIGNMENTS      1  1  1  1  1  2  3  4  1  1  1  1  1  1  1  1  1  1  1  2
TYPE ASSIGNMENTS      3  4  2  3  4  2  3  4
EXPONENTS  0.3406134D+02 0.5123575D+01 0.1164663D+01 0.3272304D+00 0.1030724D+00
EXPONENTS  0.8000000D+00 0.8000000D+00 0.8000000D+00 0.6269263D+04 0.9403161D+03
EXPONENTS  0.2142211D+03 0.6075984D+02 0.1991515D+02 0.7317151D+01 0.2972467D+01
EXPONENTS  0.1263985D+01 0.5142749D+00 0.7703089D-01 0.2893890D-01 0.4000000D+00
EXPONENTS  0.4000000D+00 0.4000000D+00 0.6000000D-01 0.6000000D-01 0.6000000D-01
EXPONENTS  0.3327000D+01 0.3327000D+01 0.3327000D+01
MO    1     MO 0.0        OCC NO =    2.0000000  ORB. ENERGY =   -2.449635
  0.32365559D-03  0.58413245D-03  0.86237471D-03  0.12062533D-02 -0.21325573D-03
  0.00000000D+00  0.00000000D+00  0.18804816D-02  0.62852171D-01  0.11737929D+00
  0.20152554D+00  0.31999259D+00  0.45459421D+00  0.53036653D+00  0.47589488D+00
  0.32404338D+00  0.94774196D-01  0.89396196D-03 -0.12132298D-03  0.00000000D+00
  0.00000000D+00  0.38441926D-02  0.00000000D+00  0.00000000D+00 -0.66967687D-04
  0.00000000D+00  0.00000000D+00  0.17395742D-01
MO    2     MO 0.0        OCC NO =    2.0000000  ORB. ENERGY =   -0.302077
  0.42322769D-01  0.76383982D-01  0.11276829D+00  0.10216119D+00  0.43287727D-01
  0.00000000D+00  0.00000000D+00  0.18526926D-01 -0.69318511D-02 -0.12945547D-01
 -0.22225884D-01 -0.35291398D-01 -0.50136365D-01 -0.58493155D-01 -0.70609536D-01
 -0.48079006D-01 -0.29130061D-01  0.23004606D-01  0.46875519D-02  0.00000000D+00
  0.00000000D+00 -0.38966007D-01  0.00000000D+00  0.00000000D+00 -0.54354553D-02
  0.00000000D+00  0.00000000D+00 -0.43444243D-01
END DATA
 TOTAL ENERGY =       -7.985170712366 THE VIRIAL(-V/T)=   1.99967716
