 LiHHHLi+ - Def2-TZVPPD - Geom opt CCSD meme base
GAUSSIAN              4 MOL ORBITALS    118 PRIMITIVES        5 NUCLEI
  H    1    (CENTRE  1)   0.00000000  0.00000000  0.00000000  CHARGE =  1.0
  H    2    (CENTRE  2)   0.00000000  0.00000000  1.88142835  CHARGE =  1.0
  H    3    (CENTRE  3)   0.00000000  0.00000000 -1.88142835  CHARGE =  1.0
  Li   4    (CENTRE  4)   0.00000000  0.00000000 -5.02642396  CHARGE =  3.0
  Li   5    (CENTRE  5)  -0.00000000  0.00000000  5.02642396  CHARGE =  3.0
CENTRE ASSIGNMENTS    1  1  1  1  1  1  1  1  1  1  1  1  1  1  1  1  1  1  1  1
CENTRE ASSIGNMENTS    2  2  2  2  2  2  2  2  2  2  2  2  2  2  2  2  2  2  2  2
CENTRE ASSIGNMENTS    3  3  3  3  3  3  3  3  3  3  3  3  3  3  3  3  3  3  3  3
CENTRE ASSIGNMENTS    4  4  4  4  4  4  4  4  4  4  4  4  4  4  4  4  4  4  4  4
CENTRE ASSIGNMENTS    4  4  4  4  4  4  4  4  4  5  5  5  5  5  5  5  5  5  5  5
CENTRE ASSIGNMENTS    5  5  5  5  5  5  5  5  5  5  5  5  5  5  5  5  5  5
TYPE ASSIGNMENTS      1  1  1  1  1  2  3  4  2  3  4  2  3  4  5  6  7  8  9 10
TYPE ASSIGNMENTS      1  1  1  1  1  2  3  4  2  3  4  2  3  4  5  6  7  8  9 10
TYPE ASSIGNMENTS      1  1  1  1  1  2  3  4  2  3  4  2  3  4  5  6  7  8  9 10
TYPE ASSIGNMENTS      1  1  1  1  1  1  1  1  1  1  1  2  3  4  2  3  4  2  3  4
TYPE ASSIGNMENTS      2  3  4  5  6  7  8  9 10  1  1  1  1  1  1  1  1  1  1  1
TYPE ASSIGNMENTS      2  3  4  2  3  4  2  3  4  2  3  4  5  6  7  8  9 10
EXPONENTS  0.3406134D+02 0.5123575D+01 0.1164663D+01 0.3272304D+00 0.1030724D+00
EXPONENTS  0.1407000D+01 0.1407000D+01 0.1407000D+01 0.3880000D+00 0.3880000D+00
EXPONENTS  0.3880000D+00 0.9577413D-01 0.9577413D-01 0.9577413D-01 0.1057000D+01
EXPONENTS  0.1057000D+01 0.1057000D+01 0.1057000D+01 0.1057000D+01 0.1057000D+01
EXPONENTS  0.3406134D+02 0.5123575D+01 0.1164663D+01 0.3272304D+00 0.1030724D+00
EXPONENTS  0.1407000D+01 0.1407000D+01 0.1407000D+01 0.3880000D+00 0.3880000D+00
EXPONENTS  0.3880000D+00 0.9577413D-01 0.9577413D-01 0.9577413D-01 0.1057000D+01
EXPONENTS  0.1057000D+01 0.1057000D+01 0.1057000D+01 0.1057000D+01 0.1057000D+01
EXPONENTS  0.3406134D+02 0.5123575D+01 0.1164663D+01 0.3272304D+00 0.1030724D+00
EXPONENTS  0.1407000D+01 0.1407000D+01 0.1407000D+01 0.3880000D+00 0.3880000D+00
EXPONENTS  0.3880000D+00 0.9577413D-01 0.9577413D-01 0.9577413D-01 0.1057000D+01
EXPONENTS  0.1057000D+01 0.1057000D+01 0.1057000D+01 0.1057000D+01 0.1057000D+01
EXPONENTS  0.6269263D+04 0.9403161D+03 0.2142211D+03 0.6075984D+02 0.1991515D+02
EXPONENTS  0.7317151D+01 0.2972467D+01 0.1263985D+01 0.5142749D+00 0.7703089D-01
EXPONENTS  0.2893890D-01 0.4000000D+00 0.4000000D+00 0.4000000D+00 0.6000000D-01
EXPONENTS  0.6000000D-01 0.6000000D-01 0.3327000D+01 0.3327000D+01 0.3327000D+01
EXPONENTS  0.2009723D-01 0.2009723D-01 0.2009723D-01 0.1319000D+00 0.1319000D+00
EXPONENTS  0.1319000D+00 0.1319000D+00 0.1319000D+00 0.1319000D+00 0.6269263D+04
EXPONENTS  0.9403161D+03 0.2142211D+03 0.6075984D+02 0.1991515D+02 0.7317151D+01
EXPONENTS  0.2972467D+01 0.1263985D+01 0.5142749D+00 0.7703089D-01 0.2893890D-01
EXPONENTS  0.4000000D+00 0.4000000D+00 0.4000000D+00 0.6000000D-01 0.6000000D-01
EXPONENTS  0.6000000D-01 0.3327000D+01 0.3327000D+01 0.3327000D+01 0.2009723D-01
EXPONENTS  0.2009723D-01 0.2009723D-01 0.1319000D+00 0.1319000D+00 0.1319000D+00
EXPONENTS  0.1319000D+00 0.1319000D+00 0.1319000D+00
MO    1     MO 0.0        OCC NO =    2.0000000  ORB. ENERGY =   -2.640840
  0.00000000D+00  0.00000000D+00  0.00000000D+00  0.00000000D+00  0.00000000D+00
  0.00000000D+00  0.00000000D+00  0.10230362D-03  0.00000000D+00  0.00000000D+00
 -0.73225928D-03  0.00000000D+00  0.00000000D+00  0.18621181D-02  0.00000000D+00
  0.00000000D+00  0.00000000D+00  0.00000000D+00  0.00000000D+00  0.00000000D+00
 -0.22202217D-03 -0.40070483D-03 -0.59157424D-03 -0.12576586D-03 -0.35811342D-02
  0.00000000D+00  0.00000000D+00 -0.35866287D-03  0.00000000D+00  0.00000000D+00
 -0.65937547D-03  0.00000000D+00  0.00000000D+00 -0.12754729D-03  0.14699447D-03
  0.14699447D-03 -0.29398895D-03  0.00000000D+00  0.00000000D+00  0.00000000D+00
  0.22202217D-03  0.40070483D-03  0.59157424D-03  0.12576586D-03  0.35811342D-02
  0.00000000D+00  0.00000000D+00 -0.35866287D-03  0.00000000D+00  0.00000000D+00
 -0.65937547D-03  0.00000000D+00  0.00000000D+00 -0.12754729D-03 -0.14699447D-03
 -0.14699447D-03  0.29398895D-03  0.00000000D+00  0.00000000D+00  0.00000000D+00
  0.44466396D-01  0.83043017D-01  0.14257446D+00  0.22638704D+00  0.32161445D+00
  0.37522154D+00  0.33712835D+00  0.22955534D+00  0.66338403D-01  0.70449743D-04
 -0.39883537D-04  0.00000000D+00  0.00000000D+00 -0.20762168D-02  0.00000000D+00
  0.00000000D+00 -0.22208983D-04  0.00000000D+00  0.00000000D+00 -0.71417039D-02
  0.00000000D+00  0.00000000D+00 -0.92138177D-06  0.24172049D-05  0.24172049D-05
 -0.48344098D-05  0.00000000D+00  0.00000000D+00  0.00000000D+00 -0.44466396D-01
 -0.83043017D-01 -0.14257446D+00 -0.22638704D+00 -0.32161445D+00 -0.37522154D+00
 -0.33712835D+00 -0.22955534D+00 -0.66338403D-01 -0.70449743D-04  0.39883537D-04
  0.00000000D+00  0.00000000D+00 -0.20762168D-02  0.00000000D+00  0.00000000D+00
 -0.22208983D-04  0.00000000D+00  0.00000000D+00 -0.71417039D-02  0.00000000D+00
  0.00000000D+00 -0.92138177D-06 -0.24172049D-05 -0.24172049D-05  0.48344098D-05
  0.00000000D+00  0.00000000D+00  0.00000000D+00
MO    2     MO 0.0        OCC NO =    2.0000000  ORB. ENERGY =   -2.640826
  0.97229709D-04  0.17547983D-03  0.25906688D-03  0.33602359D-03  0.65733688D-02
  0.00000000D+00  0.00000000D+00  0.00000000D+00  0.00000000D+00  0.00000000D+00
  0.00000000D+00  0.00000000D+00  0.00000000D+00  0.00000000D+00  0.73168288D-05
  0.73168288D-05 -0.14633658D-04  0.00000000D+00  0.00000000D+00  0.00000000D+00
  0.22565741D-03  0.40726568D-03  0.60126025D-03  0.33011297D-03 -0.25162067D-02
  0.00000000D+00  0.00000000D+00  0.92722219D-04  0.00000000D+00  0.00000000D+00
  0.72239331D-03  0.00000000D+00  0.00000000D+00  0.10007836D-02 -0.16607634D-03
 -0.16607634D-03  0.33215269D-03  0.00000000D+00  0.00000000D+00  0.00000000D+00
  0.22565741D-03  0.40726568D-03  0.60126025D-03  0.33011297D-03 -0.25162067D-02
  0.00000000D+00  0.00000000D+00 -0.92722219D-04  0.00000000D+00  0.00000000D+00
 -0.72239331D-03  0.00000000D+00  0.00000000D+00 -0.10007836D-02 -0.16607634D-03
 -0.16607634D-03  0.33215269D-03  0.00000000D+00  0.00000000D+00  0.00000000D+00
  0.44471160D-01  0.83051913D-01  0.14258974D+00  0.22641130D+00  0.32164890D+00
  0.37526174D+00  0.33707605D+00  0.22951973D+00  0.66477456D-01 -0.13641801D-03
 -0.27888435D-04  0.00000000D+00  0.00000000D+00 -0.19933274D-02  0.00000000D+00
  0.00000000D+00 -0.45733973D-04  0.00000000D+00  0.00000000D+00 -0.72034379D-02
  0.00000000D+00  0.00000000D+00  0.34787216D-05 -0.42074153D-07 -0.42074153D-07
  0.84148306D-07  0.00000000D+00  0.00000000D+00  0.00000000D+00  0.44471160D-01
  0.83051913D-01  0.14258974D+00  0.22641130D+00  0.32164890D+00  0.37526174D+00
  0.33707605D+00  0.22951973D+00  0.66477456D-01 -0.13641801D-03 -0.27888435D-04
  0.00000000D+00  0.00000000D+00  0.19933274D-02  0.00000000D+00  0.00000000D+00
  0.45733973D-04  0.00000000D+00  0.00000000D+00  0.72034379D-02  0.00000000D+00
  0.00000000D+00 -0.34787216D-05 -0.42074153D-07 -0.42074153D-07  0.84148306D-07
  0.00000000D+00  0.00000000D+00  0.00000000D+00
MO    3     MO 0.0        OCC NO =    2.0000000  ORB. ENERGY =   -0.730129
  0.39192875D-01  0.70735162D-01  0.10442874D+00  0.76937851D-01  0.44274514D-01
  0.00000000D+00  0.00000000D+00  0.00000000D+00  0.00000000D+00  0.00000000D+00
  0.00000000D+00  0.00000000D+00  0.00000000D+00  0.00000000D+00 -0.31921050D-02
 -0.31921050D-02  0.63842101D-02  0.00000000D+00  0.00000000D+00  0.00000000D+00
  0.29952591D-01  0.54058330D-01  0.79808162D-01  0.63039568D-01  0.73471400D-02
  0.00000000D+00  0.00000000D+00 -0.16553273D-01  0.00000000D+00  0.00000000D+00
  0.22975321D-02  0.00000000D+00  0.00000000D+00  0.68597079D-02 -0.22467595D-02
 -0.22467595D-02  0.44935191D-02  0.00000000D+00  0.00000000D+00  0.00000000D+00
  0.29952591D-01  0.54058330D-01  0.79808162D-01  0.63039568D-01  0.73471400D-02
  0.00000000D+00  0.00000000D+00  0.16553273D-01  0.00000000D+00  0.00000000D+00
 -0.22975321D-02  0.00000000D+00  0.00000000D+00 -0.68597079D-02 -0.22467595D-02
 -0.22467595D-02  0.44935191D-02  0.00000000D+00  0.00000000D+00  0.00000000D+00
 -0.22381308D-02 -0.41798110D-02 -0.71762122D-02 -0.11394758D-01 -0.16187846D-01
 -0.18886057D-01 -0.21888115D-01 -0.14903919D-01 -0.80174723D-02 -0.33746115D-02
  0.21835985D-03  0.00000000D+00  0.00000000D+00  0.95000215D-02  0.00000000D+00
  0.00000000D+00 -0.27698460D-03  0.00000000D+00  0.00000000D+00  0.16422034D-01
  0.00000000D+00  0.00000000D+00  0.19746340D-04 -0.10381707D-03 -0.10381707D-03
  0.20763415D-03  0.00000000D+00  0.00000000D+00  0.00000000D+00 -0.22381308D-02
 -0.41798110D-02 -0.71762122D-02 -0.11394758D-01 -0.16187846D-01 -0.18886057D-01
 -0.21888115D-01 -0.14903919D-01 -0.80174723D-02 -0.33746115D-02  0.21835985D-03
  0.00000000D+00  0.00000000D+00 -0.95000215D-02  0.00000000D+00  0.00000000D+00
  0.27698460D-03  0.00000000D+00  0.00000000D+00 -0.16422034D-01  0.00000000D+00
  0.00000000D+00 -0.19746340D-04 -0.10381707D-03 -0.10381707D-03  0.20763415D-03
  0.00000000D+00  0.00000000D+00  0.00000000D+00
MO    4     MO 0.0        OCC NO =    2.0000000  ORB. ENERGY =   -0.471244
  0.00000000D+00  0.00000000D+00  0.00000000D+00  0.00000000D+00  0.00000000D+00
  0.00000000D+00  0.00000000D+00  0.33925032D-01  0.00000000D+00  0.00000000D+00
  0.43630124D-01  0.00000000D+00  0.00000000D+00 -0.38952258D-01  0.00000000D+00
  0.00000000D+00  0.00000000D+00  0.00000000D+00  0.00000000D+00  0.00000000D+00
  0.35806746D-01  0.64623888D-01  0.95406456D-01  0.67624755D-01  0.13424396D+00
  0.00000000D+00  0.00000000D+00 -0.23385233D-02  0.00000000D+00  0.00000000D+00
  0.19610601D-01  0.00000000D+00  0.00000000D+00 -0.52463995D-02  0.53140382D-03
  0.53140382D-03 -0.10628076D-02  0.00000000D+00  0.00000000D+00  0.00000000D+00
 -0.35806746D-01 -0.64623888D-01 -0.95406456D-01 -0.67624755D-01 -0.13424396D+00
  0.00000000D+00  0.00000000D+00 -0.23385233D-02  0.00000000D+00  0.00000000D+00
  0.19610601D-01  0.00000000D+00  0.00000000D+00 -0.52463995D-02 -0.53140382D-03
 -0.53140382D-03  0.10628076D-02  0.00000000D+00  0.00000000D+00  0.00000000D+00
  0.45401536D-02  0.84789431D-02  0.14557284D-01  0.23114802D-01  0.32837808D-01
  0.38311254D-01  0.44340516D-01  0.30192068D-01  0.20027367D-01 -0.22770402D-02
 -0.25879822D-02  0.00000000D+00  0.00000000D+00 -0.19697196D-01  0.00000000D+00
  0.00000000D+00 -0.11542482D-02  0.00000000D+00  0.00000000D+00 -0.34406737D-01
  0.00000000D+00  0.00000000D+00 -0.11568867D-03  0.90191187D-06  0.90191187D-06
 -0.18038237D-05  0.00000000D+00  0.00000000D+00  0.00000000D+00 -0.45401536D-02
 -0.84789431D-02 -0.14557284D-01 -0.23114802D-01 -0.32837808D-01 -0.38311254D-01
 -0.44340516D-01 -0.30192068D-01 -0.20027367D-01  0.22770402D-02  0.25879822D-02
  0.00000000D+00  0.00000000D+00 -0.19697196D-01  0.00000000D+00  0.00000000D+00
 -0.11542482D-02  0.00000000D+00  0.00000000D+00 -0.34406737D-01  0.00000000D+00
  0.00000000D+00 -0.11568867D-03 -0.90191187D-06 -0.90191187D-06  0.18038237D-05
  0.00000000D+00  0.00000000D+00  0.00000000D+00
END DATA
 TOTAL ENERGY =      -16.390284130837 THE VIRIAL(-V/T)=   2.00032954
