 MoH - LANL2DZ et cc-pVDZ - opt CCSD same basis
GAUSSIAN             15 MOL ORBITALS     56 PRIMITIVES        2 NUCLEI
  Mo   1    (CENTRE  1)   0.00000000  0.00000000  0.07676214  CHARGE = 14.0
  H    2    (CENTRE  2)   0.00000000  0.00000000 -3.22400997  CHARGE =  1.0
CENTRE ASSIGNMENTS    1  1  1  1  1  1  1  1  1  1  1  1  1  1  1  1  1  1  1  1
CENTRE ASSIGNMENTS    1  1  1  1  1  1  1  1  1  1  1  1  1  1  1  1  1  1  1  1
CENTRE ASSIGNMENTS    1  1  1  1  1  1  1  1  1  2  2  2  2  2  2  2
TYPE ASSIGNMENTS      1  1  1  1  1  1  1  2  2  2  3  3  3  4  4  4  2  2  3  3
TYPE ASSIGNMENTS      4  4  2  3  4  5  5  5  6  6  6  7  7  7  8  8  8  9  9  9
TYPE ASSIGNMENTS     10 10 10  5  6  7  8  9 10  1  1  1  1  2  3  4
EXPONENTS  0.1309000D+01 0.4500000D+00 0.1681000D+00 0.2361000D+01 0.1309000D+01
EXPONENTS  0.4500000D+00 0.4230000D-01 0.4895000D+01 0.1044000D+01 0.3877000D+00
EXPONENTS  0.4895000D+01 0.1044000D+01 0.3877000D+00 0.4895000D+01 0.1044000D+01
EXPONENTS  0.3877000D+00 0.4995000D+00 0.7800000D-01 0.4995000D+00 0.7800000D-01
EXPONENTS  0.4995000D+00 0.7800000D-01 0.2470000D-01 0.2470000D-01 0.2470000D-01
EXPONENTS  0.2993000D+01 0.1063000D+01 0.3721000D+00 0.2993000D+01 0.1063000D+01
EXPONENTS  0.3721000D+00 0.2993000D+01 0.1063000D+01 0.3721000D+00 0.2993000D+01
EXPONENTS  0.1063000D+01 0.3721000D+00 0.2993000D+01 0.1063000D+01 0.3721000D+00
EXPONENTS  0.2993000D+01 0.1063000D+01 0.3721000D+00 0.1178000D+00 0.1178000D+00
EXPONENTS  0.1178000D+00 0.1178000D+00 0.1178000D+00 0.1178000D+00 0.1301000D+02
EXPONENTS  0.1962000D+01 0.4446000D+00 0.1220000D+00 0.7270000D+00 0.7270000D+00
EXPONENTS  0.7270000D+00
MO    1     MO 0.0        OCC NO =    1.0000000  ORB. ENERGY =   -2.977061
 -0.11043068D-02 -0.27345585D-02  0.21310250D-02 -0.12347379D+01  0.99821574D+00
  0.23807155D+00  0.17839825D-03 -0.00000000D+00  0.00000000D+00  0.00000000D+00
 -0.00000000D+00  0.00000000D+00  0.00000000D+00 -0.85314701D-02  0.95885041D-02
  0.15681285D-02 -0.00000000D+00  0.00000000D+00 -0.00000000D+00  0.00000000D+00
 -0.18540203D-03  0.17440425D-03  0.00000000D+00  0.00000000D+00 -0.58551793D-05
 -0.48436617D-03 -0.75139268D-03 -0.13859872D-03 -0.48436617D-03 -0.75139268D-03
 -0.13859872D-03  0.96873233D-03  0.15027854D-02  0.27719745D-03  0.00000000D+00
  0.00000000D+00  0.00000000D+00  0.00000000D+00  0.00000000D+00  0.00000000D+00
  0.00000000D+00  0.00000000D+00  0.00000000D+00  0.49826990D-04  0.49826990D-04
 -0.99653980D-04  0.00000000D+00  0.00000000D+00  0.00000000D+00  0.51659252D-03
  0.87626541D-03  0.99734211D-03  0.36782130D-03  0.00000000D+00  0.00000000D+00
 -0.60439732D-04
MO    2     MO 0.0        OCC NO =    1.0000000  ORB. ENERGY =   -1.887171
 -0.00000000D+00 -0.00000000D+00  0.00000000D+00 -0.00000000D+00  0.00000000D+00
  0.00000000D+00  0.00000000D+00 -0.00000000D+00  0.00000000D+00  0.00000000D+00
 -0.93682830D+00  0.10528997D+01  0.17219391D+00 -0.00000000D+00  0.00000000D+00
  0.00000000D+00 -0.00000000D+00  0.00000000D+00 -0.18549856D-02  0.17449506D-02
 -0.00000000D+00  0.00000000D+00  0.00000000D+00 -0.94785842D-04  0.00000000D+00
  0.00000000D+00  0.00000000D+00  0.00000000D+00  0.00000000D+00  0.00000000D+00
  0.00000000D+00  0.00000000D+00  0.00000000D+00  0.00000000D+00  0.00000000D+00
  0.00000000D+00  0.00000000D+00  0.00000000D+00  0.00000000D+00  0.00000000D+00
  0.43589157D-02  0.67619449D-02  0.12472798D-02  0.00000000D+00  0.00000000D+00
  0.00000000D+00  0.00000000D+00  0.00000000D+00  0.14850635D-03  0.00000000D+00
  0.00000000D+00  0.00000000D+00  0.00000000D+00  0.00000000D+00  0.75486085D-03
  0.00000000D+00
MO    3     MO 0.0        OCC NO =    1.0000000  ORB. ENERGY =   -1.887171
 -0.00000000D+00 -0.00000000D+00  0.00000000D+00 -0.00000000D+00  0.00000000D+00
  0.00000000D+00  0.00000000D+00 -0.93682830D+00  0.10528997D+01  0.17219391D+00
 -0.00000000D+00  0.00000000D+00  0.00000000D+00 -0.00000000D+00  0.00000000D+00
  0.00000000D+00 -0.18549856D-02  0.17449506D-02 -0.00000000D+00  0.00000000D+00
 -0.00000000D+00  0.00000000D+00 -0.94785842D-04  0.00000000D+00  0.00000000D+00
  0.00000000D+00  0.00000000D+00  0.00000000D+00  0.00000000D+00  0.00000000D+00
  0.00000000D+00  0.00000000D+00  0.00000000D+00  0.00000000D+00  0.00000000D+00
  0.00000000D+00  0.00000000D+00  0.43589157D-02  0.67619449D-02  0.12472798D-02
  0.00000000D+00  0.00000000D+00  0.00000000D+00  0.00000000D+00  0.00000000D+00
  0.00000000D+00  0.00000000D+00  0.14850635D-03  0.00000000D+00  0.00000000D+00
  0.00000000D+00  0.00000000D+00  0.00000000D+00  0.75486085D-03  0.00000000D+00
  0.00000000D+00
MO    4     MO 0.0        OCC NO =    1.0000000  ORB. ENERGY =   -1.878989
 -0.44749333D-03 -0.11081130D-02  0.86354577D-03  0.99902581D-02 -0.80765583D-02
 -0.19262357D-02 -0.29425231D-03 -0.00000000D+00  0.00000000D+00  0.00000000D+00
 -0.00000000D+00  0.00000000D+00  0.00000000D+00 -0.93625465D+00  0.10522549D+01
  0.17208847D+00 -0.00000000D+00  0.00000000D+00 -0.00000000D+00  0.00000000D+00
 -0.15333736D-02  0.14424162D-02  0.00000000D+00  0.00000000D+00 -0.51981242D-04
 -0.44074647D-02 -0.68372585D-02 -0.12611719D-02 -0.44074647D-02 -0.68372585D-02
 -0.12611719D-02  0.88149294D-02  0.13674517D-01  0.25223437D-02  0.00000000D+00
  0.00000000D+00  0.00000000D+00  0.00000000D+00  0.00000000D+00  0.00000000D+00
  0.00000000D+00  0.00000000D+00  0.00000000D+00  0.12119882D-03  0.12119882D-03
 -0.24239763D-03  0.00000000D+00  0.00000000D+00  0.00000000D+00 -0.33542340D-02
 -0.56895893D-02 -0.64757401D-02  0.12261995D-02  0.00000000D+00  0.00000000D+00
 -0.25767337D-02
MO    5     MO 0.0        OCC NO =    1.0000000  ORB. ENERGY =   -0.392826
 -0.83982348D-02 -0.20796272D-01  0.16206409D-01  0.12273613D+00 -0.99225215D-01
 -0.23664925D-01  0.52940431D-02 -0.00000000D+00  0.00000000D+00  0.00000000D+00
 -0.00000000D+00  0.00000000D+00  0.00000000D+00 -0.10192174D+00  0.11454967D+00
  0.18733746D-01 -0.00000000D+00  0.00000000D+00 -0.00000000D+00  0.00000000D+00
  0.82057466D-02 -0.77189937D-02  0.00000000D+00  0.00000000D+00 -0.18369896D-04
 -0.18143330D+00 -0.28145577D+00 -0.51916143D-01 -0.18143330D+00 -0.28145577D+00
 -0.51916143D-01  0.36286659D+00  0.56291153D+00  0.10383229D+00  0.00000000D+00
  0.00000000D+00  0.00000000D+00  0.00000000D+00  0.00000000D+00  0.00000000D+00
  0.00000000D+00  0.00000000D+00  0.00000000D+00 -0.36031591D-02 -0.36031591D-02
  0.72063183D-02  0.00000000D+00  0.00000000D+00  0.00000000D+00  0.51100880D-01
  0.86679407D-01  0.98656208D-01  0.23726071D-01  0.00000000D+00  0.00000000D+00
  0.28799923D-01
MO    6     MO 0.0        OCC NO =    1.0000000  ORB. ENERGY =   -0.368510
 -0.00000000D+00 -0.00000000D+00  0.00000000D+00 -0.00000000D+00  0.00000000D+00
  0.00000000D+00  0.00000000D+00  0.15891935D-01 -0.17860917D-01 -0.29210202D-02
 -0.00000000D+00  0.00000000D+00  0.00000000D+00 -0.00000000D+00  0.00000000D+00
  0.00000000D+00 -0.32230111D-02  0.30318268D-02 -0.00000000D+00  0.00000000D+00
 -0.00000000D+00  0.00000000D+00 -0.89136493D-04  0.00000000D+00  0.00000000D+00
  0.00000000D+00  0.00000000D+00  0.00000000D+00  0.00000000D+00  0.00000000D+00
  0.00000000D+00  0.00000000D+00  0.00000000D+00  0.00000000D+00  0.00000000D+00
  0.00000000D+00  0.00000000D+00  0.88814247D+00  0.13777671D+01  0.25413710D+00
  0.00000000D+00  0.00000000D+00  0.00000000D+00  0.00000000D+00  0.00000000D+00
  0.00000000D+00  0.00000000D+00  0.16777241D-01  0.00000000D+00  0.00000000D+00
  0.00000000D+00  0.00000000D+00  0.00000000D+00 -0.63863263D-02  0.00000000D+00
  0.00000000D+00
MO    7     MO 0.0        OCC NO =    1.0000000  ORB. ENERGY =   -0.368510
 -0.00000000D+00 -0.00000000D+00  0.00000000D+00 -0.00000000D+00  0.00000000D+00
  0.00000000D+00  0.00000000D+00 -0.00000000D+00  0.00000000D+00  0.00000000D+00
  0.15891935D-01 -0.17860917D-01 -0.29210202D-02 -0.00000000D+00  0.00000000D+00
  0.00000000D+00 -0.00000000D+00  0.00000000D+00 -0.32230111D-02  0.30318268D-02
 -0.00000000D+00  0.00000000D+00  0.00000000D+00 -0.89136493D-04  0.00000000D+00
  0.00000000D+00  0.00000000D+00  0.00000000D+00  0.00000000D+00  0.00000000D+00
  0.00000000D+00  0.00000000D+00  0.00000000D+00  0.00000000D+00  0.00000000D+00
  0.00000000D+00  0.00000000D+00  0.00000000D+00  0.00000000D+00  0.00000000D+00
  0.88814247D+00  0.13777671D+01  0.25413710D+00  0.00000000D+00  0.00000000D+00
  0.00000000D+00  0.00000000D+00  0.00000000D+00  0.16777241D-01  0.00000000D+00
  0.00000000D+00  0.00000000D+00  0.00000000D+00  0.00000000D+00 -0.63863263D-02
  0.00000000D+00
MO    8     MO 0.0        OCC NO =    1.0000000  ORB. ENERGY =   -0.366516
 -0.00000000D+00 -0.00000000D+00  0.00000000D+00 -0.00000000D+00  0.00000000D+00
  0.00000000D+00  0.00000000D+00 -0.00000000D+00  0.00000000D+00  0.00000000D+00
 -0.00000000D+00  0.00000000D+00  0.00000000D+00 -0.00000000D+00  0.00000000D+00
  0.00000000D+00 -0.00000000D+00  0.00000000D+00 -0.00000000D+00  0.00000000D+00
 -0.00000000D+00  0.00000000D+00  0.00000000D+00  0.00000000D+00  0.00000000D+00
  0.00000000D+00  0.00000000D+00  0.00000000D+00  0.00000000D+00  0.00000000D+00
  0.00000000D+00  0.00000000D+00  0.00000000D+00  0.00000000D+00  0.88660364D+00
  0.13753799D+01  0.25369677D+00  0.00000000D+00  0.00000000D+00  0.00000000D+00
  0.00000000D+00  0.00000000D+00  0.00000000D+00  0.00000000D+00  0.00000000D+00
  0.00000000D+00  0.17159541D-01  0.00000000D+00  0.00000000D+00  0.00000000D+00
  0.00000000D+00  0.00000000D+00  0.00000000D+00  0.00000000D+00  0.00000000D+00
  0.00000000D+00
MO    9     MO 0.0        OCC NO =    1.0000000  ORB. ENERGY =   -0.366516
  0.90400803D-16  0.22385653D-15 -0.17445004D-15 -0.12328703D-14  0.99670591D-15
  0.23771146D-15 -0.10214517D-15 -0.00000000D+00  0.00000000D+00  0.00000000D+00
 -0.00000000D+00  0.00000000D+00  0.00000000D+00  0.59666599D-15 -0.67059184D-15
 -0.10967031D-15 -0.00000000D+00  0.00000000D+00 -0.00000000D+00  0.00000000D+00
 -0.12656350D-15  0.11905593D-15  0.00000000D+00  0.00000000D+00  0.17811602D-17
  0.44330182D+00  0.68768994D+00  0.12684838D+00 -0.44330182D+00 -0.68768994D+00
 -0.12684838D+00 -0.39488381D-15 -0.61257954D-15 -0.11299384D-15  0.00000000D+00
  0.00000000D+00  0.00000000D+00  0.00000000D+00  0.00000000D+00  0.00000000D+00
  0.00000000D+00  0.00000000D+00  0.00000000D+00  0.85797704D-02 -0.85797704D-02
 -0.19092871D-16  0.00000000D+00  0.00000000D+00  0.00000000D+00 -0.22254008D-15
 -0.37748162D-15 -0.42963959D-15 -0.14643961D-16  0.00000000D+00  0.00000000D+00
 -0.75761601D-16
MO   10     MO 0.0        OCC NO =    1.0000000  ORB. ENERGY =   -0.270715
 -0.35203183D-01 -0.87172481D-01  0.67932989D-01  0.40510345D+00 -0.32750321D+00
 -0.78108563D-01  0.42054334D-01 -0.00000000D+00  0.00000000D+00  0.00000000D+00
 -0.00000000D+00  0.00000000D+00  0.00000000D+00 -0.44927136D-01  0.50493528D-01
  0.82578410D-02 -0.00000000D+00  0.00000000D+00 -0.00000000D+00  0.00000000D+00
 -0.38996507D-02  0.36683291D-02  0.00000000D+00  0.00000000D+00  0.11863914D-04
  0.11152527D+00  0.17300810D+00  0.31912345D-01  0.11152527D+00  0.17300810D+00
  0.31912345D-01 -0.22305054D+00 -0.34601621D+00 -0.63824689D-01  0.00000000D+00
  0.00000000D+00  0.00000000D+00  0.00000000D+00  0.00000000D+00  0.00000000D+00
  0.00000000D+00  0.00000000D+00  0.00000000D+00  0.34867866D-02  0.34867866D-02
 -0.69735733D-02  0.00000000D+00  0.00000000D+00  0.00000000D+00  0.20272508D-01
  0.34387059D-01  0.39138441D-01  0.28966155D-01  0.00000000D+00  0.00000000D+00
  0.93555059D-02
MO   11     MO 0.0        OCC NO =    1.0000000  ORB. ENERGY =   -2.747298
  0.11265008D-02  0.27895168D-02 -0.21738536D-02 -0.12369045D+01  0.99996730D+00
  0.23848929D+00  0.25299190D-03 -0.00000000D+00  0.00000000D+00  0.00000000D+00
 -0.00000000D+00  0.00000000D+00  0.00000000D+00 -0.11012736D-01  0.12377195D-01
  0.20241981D-02 -0.00000000D+00  0.00000000D+00 -0.00000000D+00  0.00000000D+00
 -0.17952029D-03  0.16887141D-03  0.00000000D+00  0.00000000D+00 -0.98181324D-05
 -0.54121313D-03 -0.83957884D-03 -0.15486517D-03 -0.54121313D-03 -0.83957884D-03
 -0.15486517D-03  0.10824263D-02  0.16791577D-02  0.30973034D-03  0.00000000D+00
  0.00000000D+00  0.00000000D+00  0.00000000D+00  0.00000000D+00  0.00000000D+00
  0.00000000D+00  0.00000000D+00  0.00000000D+00  0.20346894D-04  0.20346894D-04
 -0.40693788D-04  0.00000000D+00  0.00000000D+00  0.00000000D+00  0.85244337D-03
  0.14459494D-02  0.16457414D-02  0.18304075D-03  0.00000000D+00  0.00000000D+00
  0.52583565D-03
MO   12     MO 0.0        OCC NO =    1.0000000  ORB. ENERGY =   -1.598670
 -0.65313812D-03 -0.16173444D-02  0.12603867D-02  0.11616459D-01 -0.93912501D-02
 -0.22397858D-02  0.73915451D-04 -0.00000000D+00  0.00000000D+00  0.00000000D+00
 -0.00000000D+00  0.00000000D+00  0.00000000D+00 -0.93581370D+00  0.10517594D+01
  0.17200742D+00 -0.00000000D+00  0.00000000D+00 -0.00000000D+00  0.00000000D+00
 -0.48532378D-03  0.45653508D-03  0.00000000D+00  0.00000000D+00 -0.35850587D-05
 -0.38579152D-02 -0.59847476D-02 -0.11039213D-02 -0.38579152D-02 -0.59847476D-02
 -0.11039213D-02  0.77158305D-02  0.11969495D-01  0.22078426D-02  0.00000000D+00
  0.00000000D+00  0.00000000D+00  0.00000000D+00  0.00000000D+00  0.00000000D+00
  0.00000000D+00  0.00000000D+00  0.00000000D+00 -0.11006909D-04 -0.11006909D-04
  0.22013818D-04  0.00000000D+00  0.00000000D+00  0.00000000D+00 -0.52723899D-02
 -0.89432440D-02 -0.10178964D-01 -0.42396087D-03  0.00000000D+00  0.00000000D+00
 -0.39521554D-02
MO   13     MO 0.0        OCC NO =    1.0000000  ORB. ENERGY =   -1.579557
 -0.00000000D+00 -0.00000000D+00  0.00000000D+00 -0.00000000D+00  0.00000000D+00
  0.00000000D+00  0.00000000D+00 -0.94180817D+00  0.10584965D+01  0.17310923D+00
 -0.00000000D+00  0.00000000D+00  0.00000000D+00 -0.00000000D+00  0.00000000D+00
  0.00000000D+00 -0.20027868D-03  0.18839844D-03 -0.00000000D+00  0.00000000D+00
 -0.00000000D+00  0.00000000D+00  0.13895334D-04  0.00000000D+00  0.00000000D+00
  0.00000000D+00  0.00000000D+00  0.00000000D+00  0.00000000D+00  0.00000000D+00
  0.00000000D+00  0.00000000D+00  0.00000000D+00  0.00000000D+00  0.00000000D+00
  0.00000000D+00  0.00000000D+00  0.86973112D-02  0.13492057D-01  0.24886879D-02
  0.00000000D+00  0.00000000D+00  0.00000000D+00  0.00000000D+00  0.00000000D+00
  0.00000000D+00  0.00000000D+00  0.40210056D-04  0.00000000D+00  0.00000000D+00
  0.00000000D+00  0.00000000D+00  0.00000000D+00  0.96377804D-03  0.00000000D+00
  0.00000000D+00
MO   14     MO 0.0        OCC NO =    1.0000000  ORB. ENERGY =   -1.579557
 -0.00000000D+00 -0.00000000D+00  0.00000000D+00 -0.00000000D+00  0.00000000D+00
  0.00000000D+00  0.00000000D+00 -0.00000000D+00  0.00000000D+00  0.00000000D+00
 -0.94180817D+00  0.10584965D+01  0.17310923D+00 -0.00000000D+00  0.00000000D+00
  0.00000000D+00 -0.00000000D+00  0.00000000D+00 -0.20027868D-03  0.18839844D-03
 -0.00000000D+00  0.00000000D+00  0.00000000D+00  0.13895334D-04  0.00000000D+00
  0.00000000D+00  0.00000000D+00  0.00000000D+00  0.00000000D+00  0.00000000D+00
  0.00000000D+00  0.00000000D+00  0.00000000D+00  0.00000000D+00  0.00000000D+00
  0.00000000D+00  0.00000000D+00  0.00000000D+00  0.00000000D+00  0.00000000D+00
  0.86973112D-02  0.13492057D-01  0.24886879D-02  0.00000000D+00  0.00000000D+00
  0.00000000D+00  0.00000000D+00  0.00000000D+00  0.40210056D-04  0.00000000D+00
  0.00000000D+00  0.00000000D+00  0.00000000D+00  0.00000000D+00  0.96377804D-03
  0.00000000D+00
MO   15     MO 0.0        OCC NO =    1.0000000  ORB. ENERGY =   -0.394899
 -0.13861844D-01 -0.34325627D-01  0.26749754D-01  0.20932993D+00 -0.16923140D+00
 -0.40361197D-01  0.50056597D-02 -0.00000000D+00  0.00000000D+00  0.00000000D+00
 -0.00000000D+00  0.00000000D+00  0.00000000D+00 -0.16611553D+00  0.18669695D+00
  0.30532898D-01 -0.00000000D+00  0.00000000D+00 -0.00000000D+00  0.00000000D+00
  0.32693685D-02 -0.30754343D-02  0.00000000D+00  0.00000000D+00 -0.19799717D-03
 -0.58043656D-01 -0.90042577D-01 -0.16608874D-01 -0.58043656D-01 -0.90042577D-01
 -0.16608874D-01  0.11608731D+00  0.18008515D+00  0.33217748D-01  0.00000000D+00
  0.00000000D+00  0.00000000D+00  0.00000000D+00  0.00000000D+00  0.00000000D+00
  0.00000000D+00  0.00000000D+00  0.00000000D+00 -0.11965670D-02 -0.11965670D-02
  0.23931341D-02  0.00000000D+00  0.00000000D+00  0.00000000D+00  0.80499094D-01
  0.13654586D+00  0.15541289D+00  0.61230878D-01  0.00000000D+00  0.00000000D+00
  0.23497406D-01
END DATA
 TOTAL ENERGY =      -67.438372630737 THE VIRIAL(-V/T)=   3.90039852
