 MoH - LANL2DZ et cc-pVDZ - opt CCSD same basis
GAUSSIAN             10 MOL ORBITALS     56 PRIMITIVES        2 NUCLEI
  Mo   1    (CENTRE  1)   0.00000000  0.00000000  0.07676214  CHARGE = 14.0
  H    2    (CENTRE  2)   0.00000000  0.00000000 -3.22400997  CHARGE =  1.0
CENTRE ASSIGNMENTS    1  1  1  1  1  1  1  1  1  1  1  1  1  1  1  1  1  1  1  1
CENTRE ASSIGNMENTS    1  1  1  1  1  1  1  1  1  1  1  1  1  1  1  1  1  1  1  1
CENTRE ASSIGNMENTS    1  1  1  1  1  1  1  1  1  2  2  2  2  2  2  2
TYPE ASSIGNMENTS      1  1  1  1  1  1  1  2  2  2  3  3  3  4  4  4  2  2  3  3
TYPE ASSIGNMENTS      4  4  2  3  4  5  5  5  6  6  6  7  7  7  8  8  8  9  9  9
TYPE ASSIGNMENTS     10 10 10  5  6  7  8  9 10  1  1  1  1  2  3  4
EXPONENTS  0.1309000D+01 0.4500000D+00 0.1681000D+00 0.2361000D+01 0.1309000D+01
EXPONENTS  0.4500000D+00 0.4230000D-01 0.4895000D+01 0.1044000D+01 0.3877000D+00
EXPONENTS  0.4895000D+01 0.1044000D+01 0.3877000D+00 0.4895000D+01 0.1044000D+01
EXPONENTS  0.3877000D+00 0.4995000D+00 0.7800000D-01 0.4995000D+00 0.7800000D-01
EXPONENTS  0.4995000D+00 0.7800000D-01 0.2470000D-01 0.2470000D-01 0.2470000D-01
EXPONENTS  0.2993000D+01 0.1063000D+01 0.3721000D+00 0.2993000D+01 0.1063000D+01
EXPONENTS  0.3721000D+00 0.2993000D+01 0.1063000D+01 0.3721000D+00 0.2993000D+01
EXPONENTS  0.1063000D+01 0.3721000D+00 0.2993000D+01 0.1063000D+01 0.3721000D+00
EXPONENTS  0.2993000D+01 0.1063000D+01 0.3721000D+00 0.1178000D+00 0.1178000D+00
EXPONENTS  0.1178000D+00 0.1178000D+00 0.1178000D+00 0.1178000D+00 0.1301000D+02
EXPONENTS  0.1962000D+01 0.4446000D+00 0.1220000D+00 0.7270000D+00 0.7270000D+00
EXPONENTS  0.7270000D+00
CENTRE ASSIGNMENTS    1  1  1  1  1  1  1  1  1  1  1  1  1  1  1  1  1  1  1  1
CENTRE ASSIGNMENTS    1  1  1  1  1
TYPE ASSIGNMENTS      1  1  1  1  1  1  1  1  1  1  1  1  1  1  1  1  1  1  1  1
TYPE ASSIGNMENTS      1  1  1  1  1
EXPONENTS  0.2277439D+08 0.1163057D+08 0.5939569D+07 0.3033256D+07 0.1549042D+07
EXPONENTS  0.7910743D+06 0.4039907D+06 0.2063125D+06 0.1053609D+06 0.5380637D+05
EXPONENTS  0.2747817D+05 0.1403272D+05 0.7166317D+04 0.3659739D+04 0.1868978D+04
EXPONENTS  0.9544614D+03 0.4874302D+03 0.2489239D+03 0.1271220D+03 0.6491944D+02
EXPONENTS  0.3315346D+02 0.1693102D+02 0.8646436D+01 0.4415615D+01 0.2254994D+01
MO    1     MO 0.0        OCC NO =    2.0000000  ORB. ENERGY =   -2.832864
  0.19278571D-03  0.47738891D-03 -0.37202630D-03 -0.12373244D+01  0.10003068D+01
  0.23857026D+00  0.53930436D-04 -0.00000000D+00  0.00000000D+00  0.00000000D+00
 -0.00000000D+00  0.00000000D+00  0.00000000D+00 -0.12130657D-01  0.13633624D-01
  0.22296777D-02 -0.00000000D+00  0.00000000D+00 -0.00000000D+00  0.00000000D+00
 -0.16015759D-03  0.15065728D-03  0.00000000D+00  0.00000000D+00 -0.83457509D-05
 -0.13325456D-02 -0.20671655D-02 -0.38130062D-03 -0.13325456D-02 -0.20671655D-02
 -0.38130062D-03  0.26650912D-02  0.41343309D-02  0.76260124D-03  0.00000000D+00
  0.00000000D+00  0.00000000D+00  0.00000000D+00  0.00000000D+00  0.00000000D+00
  0.00000000D+00  0.00000000D+00  0.00000000D+00  0.19113640D-04  0.19113640D-04
 -0.38227280D-04  0.00000000D+00  0.00000000D+00  0.00000000D+00  0.64701295D-03
  0.10974899D-02  0.12491340D-02  0.19041637D-03  0.00000000D+00  0.00000000D+00
  0.73183322D-04
MO    2     MO 0.0        OCC NO =    2.0000000  ORB. ENERGY =   -1.702278
 -0.59271049D-03 -0.14677094D-02  0.11437771D-02  0.13886438D-01 -0.11226399D-01
 -0.26774636D-02 -0.16864606D-03 -0.00000000D+00  0.00000000D+00  0.00000000D+00
 -0.00000000D+00  0.00000000D+00  0.00000000D+00 -0.93626943D+00  0.10522715D+01
  0.17209119D+00 -0.00000000D+00  0.00000000D+00 -0.00000000D+00  0.00000000D+00
 -0.98406849D-03  0.92569499D-03  0.00000000D+00  0.00000000D+00 -0.23521780D-04
 -0.47567849D-02 -0.73791556D-02 -0.13611279D-02 -0.47567849D-02 -0.73791556D-02
 -0.13611279D-02  0.95135698D-02  0.14758311D-01  0.27222558D-02  0.00000000D+00
  0.00000000D+00  0.00000000D+00  0.00000000D+00  0.00000000D+00  0.00000000D+00
  0.00000000D+00  0.00000000D+00  0.00000000D+00  0.67541224D-04  0.67541225D-04
 -0.13508245D-03  0.00000000D+00  0.00000000D+00  0.00000000D+00 -0.42255977D-02
 -0.71676321D-02 -0.81580092D-02  0.45852458D-03  0.00000000D+00  0.00000000D+00
 -0.28402356D-02
MO    3     MO 0.0        OCC NO =    2.0000000  ORB. ENERGY =   -1.689884
 -0.00000000D+00 -0.00000000D+00  0.00000000D+00 -0.00000000D+00  0.00000000D+00
  0.00000000D+00  0.00000000D+00 -0.00000000D+00  0.00000000D+00  0.00000000D+00
 -0.93928863D+00  0.10556648D+01  0.17264613D+00 -0.00000000D+00  0.00000000D+00
  0.00000000D+00 -0.00000000D+00  0.00000000D+00 -0.10458225D-02  0.98378583D-03
 -0.00000000D+00  0.00000000D+00  0.00000000D+00 -0.40540561D-04  0.00000000D+00
  0.00000000D+00  0.00000000D+00  0.00000000D+00  0.00000000D+00  0.00000000D+00
  0.00000000D+00  0.00000000D+00  0.00000000D+00  0.00000000D+00  0.00000000D+00
  0.00000000D+00  0.00000000D+00  0.00000000D+00  0.00000000D+00  0.00000000D+00
  0.86240983D-02  0.13378483D-01  0.24677384D-02  0.00000000D+00  0.00000000D+00
  0.00000000D+00  0.00000000D+00  0.00000000D+00  0.12639171D-03  0.00000000D+00
  0.00000000D+00  0.00000000D+00  0.00000000D+00  0.00000000D+00  0.85402045D-03
  0.00000000D+00
MO    4     MO 0.0        OCC NO =    2.0000000  ORB. ENERGY =   -1.689884
 -0.00000000D+00 -0.00000000D+00  0.00000000D+00 -0.00000000D+00  0.00000000D+00
  0.00000000D+00  0.00000000D+00 -0.93928863D+00  0.10556648D+01  0.17264613D+00
 -0.00000000D+00  0.00000000D+00  0.00000000D+00 -0.00000000D+00  0.00000000D+00
  0.00000000D+00 -0.10458225D-02  0.98378583D-03 -0.00000000D+00  0.00000000D+00
 -0.00000000D+00  0.00000000D+00 -0.40540561D-04  0.00000000D+00  0.00000000D+00
  0.00000000D+00  0.00000000D+00  0.00000000D+00  0.00000000D+00  0.00000000D+00
  0.00000000D+00  0.00000000D+00  0.00000000D+00  0.00000000D+00  0.00000000D+00
  0.00000000D+00  0.00000000D+00  0.86240983D-02  0.13378483D-01  0.24677384D-02
  0.00000000D+00  0.00000000D+00  0.00000000D+00  0.00000000D+00  0.00000000D+00
  0.00000000D+00  0.00000000D+00  0.12639171D-03  0.00000000D+00  0.00000000D+00
  0.00000000D+00  0.00000000D+00  0.00000000D+00  0.85402045D-03  0.00000000D+00
  0.00000000D+00
MO    5     MO 0.0        OCC NO =    2.0000000  ORB. ENERGY =   -0.364242
 -0.18430706D-01 -0.45639349D-01  0.35566470D-01  0.24721832D+00 -0.19986202D+00
 -0.47666511D-01  0.13682302D-01 -0.00000000D+00  0.00000000D+00  0.00000000D+00
 -0.00000000D+00  0.00000000D+00  0.00000000D+00 -0.14365042D+00  0.16144845D+00
  0.26403694D-01 -0.00000000D+00  0.00000000D+00 -0.00000000D+00  0.00000000D+00
  0.54451138D-02 -0.51221176D-02  0.00000000D+00  0.00000000D+00 -0.13456830D-03
 -0.83319583D-01 -0.12925288D+00 -0.23841442D-01 -0.83319583D-01 -0.12925288D+00
 -0.23841442D-01  0.16663917D+00  0.25850577D+00  0.47682884D-01  0.00000000D+00
  0.00000000D+00  0.00000000D+00  0.00000000D+00  0.00000000D+00  0.00000000D+00
  0.00000000D+00  0.00000000D+00  0.00000000D+00 -0.15809407D-02 -0.15809407D-02
  0.31618814D-02  0.00000000D+00  0.00000000D+00  0.00000000D+00  0.68187209D-01
  0.11566194D+00  0.13164336D+00  0.48855082D-01  0.00000000D+00  0.00000000D+00
  0.28764635D-01
MO    6     MO 0.0        OCC NO =    1.0000000  ORB. ENERGY =   -0.053452
  0.29063809D-01  0.71969752D-01 -0.56085594D-01 -0.30654146D+00  0.24782143D+00
  0.59104690D-01 -0.35435341D-01 -0.00000000D+00  0.00000000D+00  0.00000000D+00
 -0.00000000D+00  0.00000000D+00  0.00000000D+00 -0.38927695D-02  0.43750766D-02
  0.71551125D-03 -0.00000000D+00  0.00000000D+00 -0.00000000D+00  0.00000000D+00
  0.84997431D-02 -0.79955508D-02  0.00000000D+00  0.00000000D+00 -0.46924956D-04
 -0.17449264D+00 -0.27068879D+00 -0.49930112D-01 -0.17449264D+00 -0.27068879D+00
 -0.49930112D-01  0.34898528D+00  0.54137758D+00  0.99860224D-01  0.00000000D+00
  0.00000000D+00  0.00000000D+00  0.00000000D+00  0.00000000D+00  0.00000000D+00
  0.00000000D+00  0.00000000D+00  0.00000000D+00 -0.48904345D-02 -0.48904345D-02
  0.97808691D-02  0.00000000D+00  0.00000000D+00  0.00000000D+00  0.37513213D-02
  0.63631450D-02  0.72423633D-02 -0.18568881D-01  0.00000000D+00  0.00000000D+00
  0.24544967D-02
MO    7     MO 0.0        OCC NO =    1.0000000  ORB. ENERGY =   -0.049212
 -0.00000000D+00 -0.00000000D+00  0.00000000D+00 -0.00000000D+00  0.00000000D+00
  0.00000000D+00  0.00000000D+00 -0.00000000D+00  0.00000000D+00  0.00000000D+00
  0.20455690D-01 -0.22990113D-01 -0.37598621D-02 -0.00000000D+00  0.00000000D+00
  0.00000000D+00 -0.00000000D+00  0.00000000D+00 -0.36360678D-02  0.34203816D-02
 -0.00000000D+00  0.00000000D+00  0.00000000D+00 -0.10193604D-03  0.00000000D+00
  0.00000000D+00  0.00000000D+00  0.00000000D+00  0.00000000D+00  0.00000000D+00
  0.00000000D+00  0.00000000D+00  0.00000000D+00  0.00000000D+00  0.00000000D+00
  0.00000000D+00  0.00000000D+00  0.00000000D+00  0.00000000D+00  0.00000000D+00
  0.89210891D+00  0.13839202D+01  0.25527207D+00  0.00000000D+00  0.00000000D+00
  0.00000000D+00  0.00000000D+00  0.00000000D+00  0.16325626D-01  0.00000000D+00
  0.00000000D+00  0.00000000D+00  0.00000000D+00  0.00000000D+00 -0.65762507D-02
  0.00000000D+00
MO    8     MO 0.0        OCC NO =    1.0000000  ORB. ENERGY =   -0.049212
 -0.00000000D+00 -0.00000000D+00  0.00000000D+00 -0.00000000D+00  0.00000000D+00
  0.00000000D+00  0.00000000D+00  0.20455690D-01 -0.22990113D-01 -0.37598621D-02
 -0.00000000D+00  0.00000000D+00  0.00000000D+00 -0.00000000D+00  0.00000000D+00
  0.00000000D+00 -0.36360678D-02  0.34203816D-02 -0.00000000D+00  0.00000000D+00
 -0.00000000D+00  0.00000000D+00 -0.10193604D-03  0.00000000D+00  0.00000000D+00
  0.00000000D+00  0.00000000D+00  0.00000000D+00  0.00000000D+00  0.00000000D+00
  0.00000000D+00  0.00000000D+00  0.00000000D+00  0.00000000D+00  0.00000000D+00
  0.00000000D+00  0.00000000D+00  0.89210891D+00  0.13839202D+01  0.25527207D+00
  0.00000000D+00  0.00000000D+00  0.00000000D+00  0.00000000D+00  0.00000000D+00
  0.00000000D+00  0.00000000D+00  0.16325626D-01  0.00000000D+00  0.00000000D+00
  0.00000000D+00  0.00000000D+00  0.00000000D+00 -0.65762507D-02  0.00000000D+00
  0.00000000D+00
MO    9     MO 0.0        OCC NO =    1.0000000  ORB. ENERGY =   -0.045391
 -0.00000000D+00 -0.00000000D+00  0.00000000D+00 -0.00000000D+00  0.00000000D+00
  0.00000000D+00  0.00000000D+00 -0.00000000D+00  0.00000000D+00  0.00000000D+00
 -0.00000000D+00  0.00000000D+00  0.00000000D+00 -0.00000000D+00  0.00000000D+00
  0.00000000D+00 -0.00000000D+00  0.00000000D+00 -0.00000000D+00  0.00000000D+00
 -0.00000000D+00  0.00000000D+00  0.00000000D+00  0.00000000D+00  0.00000000D+00
  0.00000000D+00  0.00000000D+00  0.00000000D+00  0.00000000D+00  0.00000000D+00
  0.00000000D+00  0.00000000D+00  0.00000000D+00  0.00000000D+00  0.88974424D+00
  0.13802519D+01  0.25459544D+00  0.00000000D+00  0.00000000D+00  0.00000000D+00
  0.00000000D+00  0.00000000D+00  0.00000000D+00  0.00000000D+00  0.00000000D+00
  0.00000000D+00  0.16831992D-01  0.00000000D+00  0.00000000D+00  0.00000000D+00
  0.00000000D+00  0.00000000D+00  0.00000000D+00  0.00000000D+00  0.00000000D+00
  0.00000000D+00
MO   10     MO 0.0        OCC NO =    1.0000000  ORB. ENERGY =   -0.045391
 -0.34936427D-11 -0.86511923D-11  0.67418220D-11  0.52429903D-10 -0.42386610D-10
 -0.10109083D-10  0.61763872D-11 -0.00000000D+00  0.00000000D+00  0.00000000D+00
 -0.00000000D+00  0.00000000D+00  0.00000000D+00  0.30080241D-10 -0.33807129D-10
 -0.55289046D-11 -0.00000000D+00  0.00000000D+00 -0.00000000D+00  0.00000000D+00
  0.53212332D-11 -0.50055855D-11  0.00000000D+00  0.00000000D+00  0.72908694D-11
  0.44487212D+00  0.69012593D+00  0.12729772D+00 -0.44487212D+00 -0.69012593D+00
 -0.12729772D+00  0.17538128D-10  0.27206733D-10  0.50184392D-11  0.00000000D+00
  0.00000000D+00  0.00000000D+00  0.00000000D+00  0.00000000D+00  0.00000000D+00
  0.00000000D+00  0.00000000D+00  0.00000000D+00  0.84159958D-02 -0.84159958D-02
  0.17710267D-11  0.00000000D+00  0.00000000D+00  0.00000000D+00 -0.20392630D-11
 -0.34590814D-11 -0.39370350D-11  0.38909991D-11  0.00000000D+00  0.00000000D+00
 -0.14050587D-11
END DATA
 TOTAL ENERGY =      -67.430274034773 THE VIRIAL(-V/T)=   3.90714634
