 N2 Opt B3LYP/cc-pVTZ                                    
GAUSSIAN              7 MOL ORBITALS    106 PRIMITIVES        2 NUCLEI
  N    1    (CENTRE  1)   0.00000000  0.00000000  1.03120265  CHARGE =  7.0
  N    2    (CENTRE  2)   0.00000000  0.00000000 -1.03120265  CHARGE =  7.0
CENTRE ASSIGNMENTS    1  1  1  1  1  1  1  1  1  1  1  1  1  1  1  1  1  1  1  1
CENTRE ASSIGNMENTS    1  1  1  1  1  1  1  1  1  1  1  1  1  1  1  1  1  1  1  1
CENTRE ASSIGNMENTS    1  1  1  1  1  1  1  1  1  1  1  1  1  2  2  2  2  2  2  2
CENTRE ASSIGNMENTS    2  2  2  2  2  2  2  2  2  2  2  2  2  2  2  2  2  2  2  2
CENTRE ASSIGNMENTS    2  2  2  2  2  2  2  2  2  2  2  2  2  2  2  2  2  2  2  2
CENTRE ASSIGNMENTS    2  2  2  2  2  2
TYPE ASSIGNMENTS      1  1  1  1  1  1  1  1  1  1  1  1  1  1  1  1  2  2  2  3
TYPE ASSIGNMENTS      3  3  4  4  4  2  3  4  2  3  4  5  6  7  8  9 10  5  6  7
TYPE ASSIGNMENTS      8  9 10 11 12 13 17 14 15 18 19 16 20  1  1  1  1  1  1  1
TYPE ASSIGNMENTS      1  1  1  1  1  1  1  1  1  2  2  2  3  3  3  4  4  4  2  3
TYPE ASSIGNMENTS      4  2  3  4  5  6  7  8  9 10  5  6  7  8  9 10 11 12 13 17
TYPE ASSIGNMENTS     14 15 18 19 16 20
EXPONENTS  0.1142000D+05 0.1712000D+04 0.3893000D+03 0.1100000D+03 0.3557000D+02
EXPONENTS  0.1254000D+02 0.4644000D+01 0.1142000D+05 0.1712000D+04 0.3893000D+03
EXPONENTS  0.3557000D+02 0.1254000D+02 0.4644000D+01 0.5118000D+00 0.1293000D+01
EXPONENTS  0.1787000D+00 0.2663000D+02 0.5948000D+01 0.1742000D+01 0.2663000D+02
EXPONENTS  0.5948000D+01 0.1742000D+01 0.2663000D+02 0.5948000D+01 0.1742000D+01
EXPONENTS  0.5550000D+00 0.5550000D+00 0.5550000D+00 0.1725000D+00 0.1725000D+00
EXPONENTS  0.1725000D+00 0.1654000D+01 0.1654000D+01 0.1654000D+01 0.1654000D+01
EXPONENTS  0.1654000D+01 0.1654000D+01 0.4690000D+00 0.4690000D+00 0.4690000D+00
EXPONENTS  0.4690000D+00 0.4690000D+00 0.4690000D+00 0.1093000D+01 0.1093000D+01
EXPONENTS  0.1093000D+01 0.1093000D+01 0.1093000D+01 0.1093000D+01 0.1093000D+01
EXPONENTS  0.1093000D+01 0.1093000D+01 0.1093000D+01 0.1142000D+05 0.1712000D+04
EXPONENTS  0.3893000D+03 0.1100000D+03 0.3557000D+02 0.1254000D+02 0.4644000D+01
EXPONENTS  0.1142000D+05 0.1712000D+04 0.3893000D+03 0.3557000D+02 0.1254000D+02
EXPONENTS  0.4644000D+01 0.5118000D+00 0.1293000D+01 0.1787000D+00 0.2663000D+02
EXPONENTS  0.5948000D+01 0.1742000D+01 0.2663000D+02 0.5948000D+01 0.1742000D+01
EXPONENTS  0.2663000D+02 0.5948000D+01 0.1742000D+01 0.5550000D+00 0.5550000D+00
EXPONENTS  0.5550000D+00 0.1725000D+00 0.1725000D+00 0.1725000D+00 0.1654000D+01
EXPONENTS  0.1654000D+01 0.1654000D+01 0.1654000D+01 0.1654000D+01 0.1654000D+01
EXPONENTS  0.4690000D+00 0.4690000D+00 0.4690000D+00 0.4690000D+00 0.4690000D+00
EXPONENTS  0.4690000D+00 0.1093000D+01 0.1093000D+01 0.1093000D+01 0.1093000D+01
EXPONENTS  0.1093000D+01 0.1093000D+01 0.1093000D+01 0.1093000D+01 0.1093000D+01
EXPONENTS  0.1093000D+01
MO    1     MO 0.0        OCC NO =    2.0000000  ORB. ENERGY =  -14.419980
  0.28965755D+00  0.53972363D+00  0.91279090D+00  0.13744768D+01  0.17012920D+01
  0.14465142D+01  0.54892170D+00 -0.49792974D-04 -0.79527654D-04 -0.11308141D-03
  0.50126272D-03  0.19432425D-02  0.26264308D-02 -0.32385839D-02  0.32195329D-01
  0.20595495D-03  0.00000000D+00  0.00000000D+00  0.00000000D+00  0.00000000D+00
  0.00000000D+00  0.00000000D+00 -0.65522293D-02 -0.62933379D-02 -0.44133230D-02
  0.00000000D+00  0.00000000D+00  0.39138788D-03  0.00000000D+00  0.00000000D+00
  0.95997367D-04 -0.89827617D-03 -0.89827617D-03  0.17965523D-02  0.00000000D+00
  0.00000000D+00  0.00000000D+00  0.31033548D-03  0.31033548D-03 -0.62067095D-03
  0.00000000D+00  0.00000000D+00  0.00000000D+00  0.00000000D+00  0.00000000D+00
  0.10632732D-02  0.00000000D+00  0.00000000D+00 -0.15949098D-02  0.00000000D+00
  0.00000000D+00 -0.15949098D-02  0.00000000D+00  0.28965755D+00  0.53972363D+00
  0.91279090D+00  0.13744768D+01  0.17012920D+01  0.14465142D+01  0.54892170D+00
 -0.49792974D-04 -0.79527654D-04 -0.11308141D-03  0.50126272D-03  0.19432425D-02
  0.26264308D-02 -0.32385839D-02  0.32195329D-01  0.20595495D-03  0.00000000D+00
  0.00000000D+00  0.00000000D+00  0.00000000D+00  0.00000000D+00  0.00000000D+00
  0.65522293D-02  0.62933379D-02  0.44133230D-02  0.00000000D+00  0.00000000D+00
 -0.39138788D-03  0.00000000D+00  0.00000000D+00 -0.95997367D-04 -0.89827617D-03
 -0.89827617D-03  0.17965523D-02  0.00000000D+00  0.00000000D+00  0.00000000D+00
  0.31033548D-03  0.31033548D-03 -0.62067095D-03  0.00000000D+00  0.00000000D+00
  0.00000000D+00  0.00000000D+00  0.00000000D+00 -0.10632732D-02  0.00000000D+00
  0.00000000D+00  0.15949098D-02  0.00000000D+00  0.00000000D+00  0.15949098D-02
  0.00000000D+00
MO    2     MO 0.0        OCC NO =    2.0000000  ORB. ENERGY =  -14.418103
  0.29014465D+00  0.54063126D+00  0.91432589D+00  0.13767882D+01  0.17041530D+01
  0.14489467D+01  0.54984479D+00 -0.84142302D-05 -0.13438924D-04 -0.19108981D-04
  0.84705524D-04  0.32837745D-03  0.44382555D-03 -0.54726980D-03  0.30852139D-01
  0.37576685D-02  0.00000000D+00  0.00000000D+00  0.00000000D+00  0.00000000D+00
  0.00000000D+00  0.00000000D+00 -0.29612412D-02 -0.28442368D-02 -0.19945751D-02
  0.00000000D+00  0.00000000D+00 -0.58903779D-02  0.00000000D+00  0.00000000D+00
 -0.10918374D-02 -0.30718894D-02 -0.30718894D-02  0.61437788D-02  0.00000000D+00
  0.00000000D+00  0.00000000D+00 -0.87624112D-03 -0.87624112D-03  0.17524822D-02
  0.00000000D+00  0.00000000D+00  0.00000000D+00  0.00000000D+00  0.00000000D+00
 -0.28402437D-02  0.00000000D+00  0.00000000D+00  0.42603655D-02  0.00000000D+00
  0.00000000D+00  0.42603655D-02  0.00000000D+00 -0.29014465D+00 -0.54063126D+00
 -0.91432589D+00 -0.13767882D+01 -0.17041530D+01 -0.14489467D+01 -0.54984479D+00
  0.84142302D-05  0.13438924D-04  0.19108981D-04 -0.84705524D-04 -0.32837745D-03
 -0.44382555D-03  0.54726980D-03 -0.30852139D-01 -0.37576685D-02  0.00000000D+00
  0.00000000D+00  0.00000000D+00  0.00000000D+00  0.00000000D+00  0.00000000D+00
 -0.29612412D-02 -0.28442368D-02 -0.19945751D-02  0.00000000D+00  0.00000000D+00
 -0.58903779D-02  0.00000000D+00  0.00000000D+00 -0.10918374D-02  0.30718894D-02
  0.30718894D-02 -0.61437788D-02  0.00000000D+00  0.00000000D+00  0.00000000D+00
  0.87624112D-03  0.87624112D-03 -0.17524822D-02  0.00000000D+00  0.00000000D+00
  0.00000000D+00  0.00000000D+00  0.00000000D+00 -0.28402437D-02  0.00000000D+00
  0.00000000D+00  0.42603655D-02  0.00000000D+00  0.00000000D+00  0.42603655D-02
  0.00000000D+00
MO    3     MO 0.0        OCC NO =    2.0000000  ORB. ENERGY =   -1.132331
 -0.69585441D-01 -0.12965969D+00 -0.21928293D+00 -0.33019535D+00 -0.40870731D+00
 -0.34750114D+00 -0.13186937D+00  0.23641232D-02  0.37758976D-02  0.53689980D-02
 -0.23799479D-01 -0.92263310D-01 -0.12470045D+00  0.15376489D+00  0.84300058D-01
  0.18879487D-01  0.00000000D+00  0.00000000D+00  0.00000000D+00  0.00000000D+00
  0.00000000D+00  0.00000000D+00 -0.47540593D+00 -0.45662171D+00 -0.32021466D+00
  0.00000000D+00  0.00000000D+00 -0.88338480D-01  0.00000000D+00  0.00000000D+00
 -0.28760720D-02 -0.35820252D-01 -0.35820252D-01  0.71640505D-01  0.00000000D+00
  0.00000000D+00  0.00000000D+00 -0.32236267D-02 -0.32236267D-02  0.64472534D-02
  0.00000000D+00  0.00000000D+00  0.00000000D+00  0.00000000D+00  0.00000000D+00
 -0.12548519D-01  0.00000000D+00  0.00000000D+00  0.18822778D-01  0.00000000D+00
  0.00000000D+00  0.18822778D-01  0.00000000D+00 -0.69585441D-01 -0.12965969D+00
 -0.21928293D+00 -0.33019535D+00 -0.40870731D+00 -0.34750114D+00 -0.13186937D+00
  0.23641232D-02  0.37758976D-02  0.53689980D-02 -0.23799479D-01 -0.92263310D-01
 -0.12470045D+00  0.15376489D+00  0.84300058D-01  0.18879487D-01  0.00000000D+00
  0.00000000D+00  0.00000000D+00  0.00000000D+00  0.00000000D+00  0.00000000D+00
  0.47540593D+00  0.45662171D+00  0.32021466D+00  0.00000000D+00  0.00000000D+00
  0.88338480D-01  0.00000000D+00  0.00000000D+00  0.28760720D-02 -0.35820252D-01
 -0.35820252D-01  0.71640505D-01  0.00000000D+00  0.00000000D+00  0.00000000D+00
 -0.32236267D-02 -0.32236267D-02  0.64472534D-02  0.00000000D+00  0.00000000D+00
  0.00000000D+00  0.00000000D+00  0.00000000D+00  0.12548519D-01  0.00000000D+00
  0.00000000D+00 -0.18822778D-01  0.00000000D+00  0.00000000D+00 -0.18822778D-01
  0.00000000D+00
MO    4     MO 0.0        OCC NO =    2.0000000  ORB. ENERGY =   -0.554222
 -0.63188973D-01 -0.11774104D+00 -0.19912590D+00 -0.29984296D+00 -0.37113791D+00
 -0.31555796D+00 -0.11974761D+00  0.25440409D-02  0.40632561D-02  0.57775968D-02
 -0.25610699D-01 -0.99284858D-01 -0.13419057D+00  0.16546692D+00  0.93385081D-01
  0.60532303D-01  0.00000000D+00  0.00000000D+00  0.00000000D+00  0.00000000D+00
  0.00000000D+00  0.00000000D+00  0.40039895D+00  0.38457841D+00  0.26969292D+00
  0.00000000D+00  0.00000000D+00  0.94799353D-01  0.00000000D+00  0.00000000D+00
  0.13347638D-01  0.10257713D-01  0.10257713D-01 -0.20515426D-01  0.00000000D+00
  0.00000000D+00  0.00000000D+00  0.33757199D-02  0.33757199D-02 -0.67514398D-02
  0.00000000D+00  0.00000000D+00  0.00000000D+00  0.00000000D+00  0.00000000D+00
  0.10825139D-02  0.00000000D+00  0.00000000D+00 -0.16237709D-02  0.00000000D+00
  0.00000000D+00 -0.16237709D-02  0.00000000D+00  0.63188973D-01  0.11774104D+00
  0.19912590D+00  0.29984296D+00  0.37113791D+00  0.31555796D+00  0.11974761D+00
 -0.25440409D-02 -0.40632561D-02 -0.57775968D-02  0.25610699D-01  0.99284858D-01
  0.13419057D+00 -0.16546692D+00 -0.93385081D-01 -0.60532303D-01  0.00000000D+00
  0.00000000D+00  0.00000000D+00  0.00000000D+00  0.00000000D+00  0.00000000D+00
  0.40039895D+00  0.38457841D+00  0.26969292D+00  0.00000000D+00  0.00000000D+00
  0.94799353D-01  0.00000000D+00  0.00000000D+00  0.13347638D-01 -0.10257713D-01
 -0.10257713D-01  0.20515426D-01  0.00000000D+00  0.00000000D+00  0.00000000D+00
 -0.33757199D-02 -0.33757199D-02  0.67514398D-02  0.00000000D+00  0.00000000D+00
  0.00000000D+00  0.00000000D+00  0.00000000D+00  0.10825139D-02  0.00000000D+00
  0.00000000D+00 -0.16237709D-02  0.00000000D+00  0.00000000D+00 -0.16237709D-02
  0.00000000D+00
MO    5     MO 0.0        OCC NO =    2.0000000  ORB. ENERGY =   -0.471500
  0.00000000D+00  0.00000000D+00  0.00000000D+00  0.00000000D+00  0.00000000D+00
  0.00000000D+00  0.00000000D+00  0.00000000D+00  0.00000000D+00  0.00000000D+00
  0.00000000D+00  0.00000000D+00  0.00000000D+00  0.00000000D+00  0.00000000D+00
  0.00000000D+00  0.00000000D+00  0.00000000D+00  0.00000000D+00  0.86191586D+00
  0.82785988D+00  0.58055249D+00  0.00000000D+00  0.00000000D+00  0.00000000D+00
  0.00000000D+00  0.20528979D+00  0.00000000D+00  0.00000000D+00  0.27230909D-01
  0.00000000D+00  0.00000000D+00  0.00000000D+00  0.00000000D+00  0.00000000D+00
  0.00000000D+00 -0.12158693D+00  0.00000000D+00  0.00000000D+00  0.00000000D+00
  0.00000000D+00  0.00000000D+00 -0.23276257D-01  0.00000000D+00 -0.82068558D-02
  0.00000000D+00  0.00000000D+00 -0.82068542D-02  0.00000000D+00  0.00000000D+00
  0.32827422D-01  0.00000000D+00  0.00000000D+00  0.00000000D+00  0.00000000D+00
  0.00000000D+00  0.00000000D+00  0.00000000D+00  0.00000000D+00  0.00000000D+00
  0.00000000D+00  0.00000000D+00  0.00000000D+00  0.00000000D+00  0.00000000D+00
  0.00000000D+00  0.00000000D+00  0.00000000D+00  0.00000000D+00  0.00000000D+00
  0.00000000D+00  0.00000000D+00  0.86191586D+00  0.82785988D+00  0.58055249D+00
  0.00000000D+00  0.00000000D+00  0.00000000D+00  0.00000000D+00  0.20528979D+00
  0.00000000D+00  0.00000000D+00  0.27230909D-01  0.00000000D+00  0.00000000D+00
  0.00000000D+00  0.00000000D+00  0.00000000D+00  0.00000000D+00  0.12158693D+00
  0.00000000D+00  0.00000000D+00  0.00000000D+00  0.00000000D+00  0.00000000D+00
  0.23276257D-01  0.00000000D+00 -0.82068558D-02  0.00000000D+00  0.00000000D+00
 -0.82068542D-02  0.00000000D+00  0.00000000D+00  0.32827422D-01  0.00000000D+00
  0.00000000D+00
MO    6     MO 0.0        OCC NO =    2.0000000  ORB. ENERGY =   -0.471500
  0.00000000D+00  0.00000000D+00  0.00000000D+00  0.00000000D+00  0.00000000D+00
  0.00000000D+00  0.00000000D+00  0.00000000D+00  0.00000000D+00  0.00000000D+00
  0.00000000D+00  0.00000000D+00  0.00000000D+00  0.00000000D+00  0.00000000D+00
  0.00000000D+00  0.86191586D+00  0.82785988D+00  0.58055249D+00  0.00000000D+00
  0.00000000D+00  0.00000000D+00  0.00000000D+00  0.00000000D+00  0.00000000D+00
  0.20528979D+00  0.00000000D+00  0.00000000D+00  0.27230909D-01  0.00000000D+00
  0.00000000D+00  0.00000000D+00  0.00000000D+00  0.00000000D+00  0.00000000D+00
 -0.12158693D+00  0.00000000D+00  0.00000000D+00  0.00000000D+00  0.00000000D+00
  0.00000000D+00 -0.23276257D-01  0.00000000D+00 -0.82068558D-02  0.00000000D+00
  0.00000000D+00 -0.82068542D-02  0.00000000D+00  0.00000000D+00  0.32827422D-01
  0.00000000D+00  0.00000000D+00  0.00000000D+00  0.00000000D+00  0.00000000D+00
  0.00000000D+00  0.00000000D+00  0.00000000D+00  0.00000000D+00  0.00000000D+00
  0.00000000D+00  0.00000000D+00  0.00000000D+00  0.00000000D+00  0.00000000D+00
  0.00000000D+00  0.00000000D+00  0.00000000D+00  0.00000000D+00  0.86191586D+00
  0.82785988D+00  0.58055249D+00  0.00000000D+00  0.00000000D+00  0.00000000D+00
  0.00000000D+00  0.00000000D+00  0.00000000D+00  0.20528979D+00  0.00000000D+00
  0.00000000D+00  0.27230909D-01  0.00000000D+00  0.00000000D+00  0.00000000D+00
  0.00000000D+00  0.00000000D+00  0.00000000D+00  0.12158693D+00  0.00000000D+00
  0.00000000D+00  0.00000000D+00  0.00000000D+00  0.00000000D+00  0.23276257D-01
  0.00000000D+00 -0.82068558D-02  0.00000000D+00  0.00000000D+00 -0.82068542D-02
  0.00000000D+00  0.00000000D+00  0.32827422D-01  0.00000000D+00  0.00000000D+00
  0.00000000D+00
MO    7     MO 0.0        OCC NO =    2.0000000  ORB. ENERGY =   -0.434556
 -0.22976593D-01 -0.42812661D-01 -0.72405589D-01 -0.10902804D+00 -0.13495210D+00
 -0.11474228D+00 -0.43542282D-01  0.88026204D-03  0.14059248D-02  0.19991028D-02
 -0.88615424D-02 -0.34353493D-01 -0.46431197D-01  0.57253108D-01  0.32469032D-01
  0.55700258D-01  0.00000000D+00  0.00000000D+00  0.00000000D+00  0.00000000D+00
  0.00000000D+00  0.00000000D+00  0.91453602D+00  0.87840091D+00  0.61599535D+00
  0.00000000D+00  0.00000000D+00  0.19389577D+00  0.00000000D+00  0.00000000D+00
  0.24726285D-01  0.34083705D-01  0.34083705D-01 -0.68167410D-01  0.00000000D+00
  0.00000000D+00  0.00000000D+00  0.31589977D-02  0.31589977D-02 -0.63179954D-02
  0.00000000D+00  0.00000000D+00  0.00000000D+00  0.00000000D+00  0.00000000D+00
  0.73782953D-02  0.00000000D+00  0.00000000D+00 -0.11067443D-01  0.00000000D+00
  0.00000000D+00 -0.11067443D-01  0.00000000D+00 -0.22976593D-01 -0.42812661D-01
 -0.72405589D-01 -0.10902804D+00 -0.13495210D+00 -0.11474228D+00 -0.43542282D-01
  0.88026204D-03  0.14059248D-02  0.19991028D-02 -0.88615424D-02 -0.34353493D-01
 -0.46431197D-01  0.57253108D-01  0.32469032D-01  0.55700258D-01  0.00000000D+00
  0.00000000D+00  0.00000000D+00  0.00000000D+00  0.00000000D+00  0.00000000D+00
 -0.91453602D+00 -0.87840091D+00 -0.61599535D+00  0.00000000D+00  0.00000000D+00
 -0.19389577D+00  0.00000000D+00  0.00000000D+00 -0.24726285D-01  0.34083705D-01
  0.34083705D-01 -0.68167410D-01  0.00000000D+00  0.00000000D+00  0.00000000D+00
  0.31589977D-02  0.31589977D-02 -0.63179954D-02  0.00000000D+00  0.00000000D+00
  0.00000000D+00  0.00000000D+00  0.00000000D+00 -0.73782953D-02  0.00000000D+00
  0.00000000D+00  0.11067443D-01  0.00000000D+00  0.00000000D+00  0.11067443D-01
  0.00000000D+00
END DATA
 THE  HF ENERGY =   -109.568429324826 THE VIRIAL(-V/T)=   2.00553720
