 Ne Atom - Base Def2-TZVP - RHF
GAUSSIAN              5 MOL ORBITALS     51 PRIMITIVES        1 NUCLEI
  Ne   1    (CENTRE  1)   0.00000000  0.00000000  0.00000000  CHARGE = 10.0
CENTRE ASSIGNMENTS    1  1  1  1  1  1  1  1  1  1  1  1  1  1  1  1  1  1  1  1
CENTRE ASSIGNMENTS    1  1  1  1  1  1  1  1  1  1  1  1  1  1  1  1  1  1  1  1
CENTRE ASSIGNMENTS    1  1  1  1  1  1  1  1  1  1  1
TYPE ASSIGNMENTS      1  1  1  1  1  1  1  1  1  1  1  2  2  2  2  3  3  3  3  4
TYPE ASSIGNMENTS      4  4  4  2  3  4  2  3  4  5  6  7  8  9 10  5  6  7  8  9
TYPE ASSIGNMENTS     10 11 12 13 17 14 15 18 19 16 20
EXPONENTS  0.4506946D+05 0.6755977D+04 0.1537650D+04 0.4355170D+03 0.1422866D+03
EXPONENTS  0.5169215D+02 0.2031587D+02 0.8202194D+01 0.1968128D+01 0.7790476D+00
EXPONENTS  0.3022950D+00 0.9978300D+02 0.2317612D+02 0.7116395D+01 0.2441871D+01
EXPONENTS  0.9978300D+02 0.2317612D+02 0.7116395D+01 0.2441871D+01 0.9978300D+02
EXPONENTS  0.2317612D+02 0.7116395D+01 0.2441871D+01 0.8338961D+00 0.8338961D+00
EXPONENTS  0.8338961D+00 0.2660731D+00 0.2660731D+00 0.2660731D+00 0.4014000D+01
EXPONENTS  0.4014000D+01 0.4014000D+01 0.4014000D+01 0.4014000D+01 0.4014000D+01
EXPONENTS  0.1096000D+01 0.1096000D+01 0.1096000D+01 0.1096000D+01 0.1096000D+01
EXPONENTS  0.1096000D+01 0.2544000D+01 0.2544000D+01 0.2544000D+01 0.2544000D+01
EXPONENTS  0.2544000D+01 0.2544000D+01 0.2544000D+01 0.2544000D+01 0.2544000D+01
EXPONENTS  0.2544000D+01
MO    1     MO 0.0        OCC NO =    2.0000000  ORB. ENERGY =  -32.771235
  0.51051020D+00  0.95344265D+00  0.16323988D+01  0.25654980D+01  0.35495046D+01
  0.39104933D+01  0.28224569D+01  0.92278599D+00  0.27556259D-01 -0.39240305D-02
  0.63315190D-03  0.00000000D+00  0.00000000D+00  0.00000000D+00  0.00000000D+00
  0.00000000D+00  0.00000000D+00  0.00000000D+00  0.00000000D+00  0.00000000D+00
  0.00000000D+00  0.00000000D+00  0.00000000D+00  0.00000000D+00  0.00000000D+00
  0.00000000D+00  0.00000000D+00  0.00000000D+00  0.00000000D+00 -0.12169205D-14
  0.35118452D-14 -0.22949247D-14  0.00000000D+00  0.00000000D+00  0.00000000D+00
 -0.14378323D-15 -0.41031825D-15  0.55410148D-15  0.00000000D+00  0.00000000D+00
  0.00000000D+00  0.00000000D+00  0.00000000D+00  0.00000000D+00  0.00000000D+00
  0.00000000D+00  0.00000000D+00  0.00000000D+00  0.00000000D+00  0.00000000D+00
  0.00000000D+00
MO    2     MO 0.0        OCC NO =    2.0000000  ORB. ENERGY =   -1.928750
 -0.12974164D+00 -0.24230900D+00 -0.41485970D+00 -0.65199858D+00 -0.90207513D+00
 -0.99381722D+00 -0.11613861D+01 -0.37970848D+00  0.44807067D+00  0.32132663D+00
  0.63300872D-01  0.00000000D+00  0.00000000D+00  0.00000000D+00  0.00000000D+00
  0.00000000D+00  0.00000000D+00  0.00000000D+00  0.00000000D+00  0.00000000D+00
  0.00000000D+00  0.00000000D+00  0.00000000D+00  0.00000000D+00  0.00000000D+00
  0.00000000D+00  0.00000000D+00  0.00000000D+00  0.00000000D+00 -0.60343373D-15
 -0.14341117D-14  0.20375454D-14  0.00000000D+00  0.00000000D+00  0.00000000D+00
 -0.20185724D-15  0.38738393D-15 -0.18552668D-15  0.00000000D+00  0.00000000D+00
  0.00000000D+00  0.00000000D+00  0.00000000D+00  0.00000000D+00  0.00000000D+00
  0.00000000D+00  0.00000000D+00  0.00000000D+00  0.00000000D+00  0.00000000D+00
  0.00000000D+00
MO    3     MO 0.0        OCC NO =    2.0000000  ORB. ENERGY =   -0.849096
  0.00000000D+00  0.00000000D+00  0.00000000D+00  0.00000000D+00  0.00000000D+00
  0.00000000D+00  0.00000000D+00  0.00000000D+00  0.00000000D+00  0.00000000D+00
  0.00000000D+00  0.00000000D+00  0.00000000D+00  0.00000000D+00  0.00000000D+00
  0.00000000D+00  0.00000000D+00  0.00000000D+00  0.00000000D+00  0.29475479D+01
  0.33261384D+01  0.28714149D+01  0.15870551D+01  0.00000000D+00  0.00000000D+00
  0.49786559D+00  0.00000000D+00  0.00000000D+00  0.65809531D-01  0.00000000D+00
  0.00000000D+00  0.00000000D+00  0.00000000D+00  0.00000000D+00  0.00000000D+00
  0.00000000D+00  0.00000000D+00  0.00000000D+00  0.00000000D+00  0.00000000D+00
  0.00000000D+00  0.00000000D+00  0.00000000D+00  0.31766040D-13  0.00000000D+00
  0.00000000D+00 -0.47993165D-13  0.00000000D+00  0.00000000D+00 -0.47304955D-13
  0.00000000D+00
MO    4     MO 0.0        OCC NO =    2.0000000  ORB. ENERGY =   -0.849096
  0.00000000D+00  0.00000000D+00  0.00000000D+00  0.00000000D+00  0.00000000D+00
  0.00000000D+00  0.00000000D+00  0.00000000D+00  0.00000000D+00  0.00000000D+00
  0.00000000D+00  0.00000000D+00  0.00000000D+00  0.00000000D+00  0.00000000D+00
  0.29475479D+01  0.33261384D+01  0.28714149D+01  0.15870551D+01  0.00000000D+00
  0.00000000D+00  0.00000000D+00  0.00000000D+00  0.00000000D+00  0.49786559D+00
  0.00000000D+00  0.00000000D+00  0.65809531D-01  0.00000000D+00  0.00000000D+00
  0.00000000D+00  0.00000000D+00  0.00000000D+00  0.00000000D+00  0.00000000D+00
  0.00000000D+00  0.00000000D+00  0.00000000D+00  0.00000000D+00  0.00000000D+00
  0.00000000D+00  0.00000000D+00  0.30290195D-13  0.00000000D+00  0.00000000D+00
 -0.44678494D-13  0.00000000D+00  0.00000000D+00 -0.46192090D-13  0.00000000D+00
  0.00000000D+00
MO    5     MO 0.0        OCC NO =    2.0000000  ORB. ENERGY =   -0.849096
  0.00000000D+00  0.00000000D+00  0.00000000D+00  0.00000000D+00  0.00000000D+00
  0.00000000D+00  0.00000000D+00  0.00000000D+00  0.00000000D+00  0.00000000D+00
  0.00000000D+00  0.29475479D+01  0.33261384D+01  0.28714149D+01  0.15870551D+01
  0.00000000D+00  0.00000000D+00  0.00000000D+00  0.00000000D+00  0.00000000D+00
  0.00000000D+00  0.00000000D+00  0.00000000D+00  0.49786559D+00  0.00000000D+00
  0.00000000D+00  0.65809531D-01  0.00000000D+00  0.00000000D+00  0.00000000D+00
  0.00000000D+00  0.00000000D+00  0.00000000D+00  0.00000000D+00  0.00000000D+00
  0.00000000D+00  0.00000000D+00  0.00000000D+00  0.00000000D+00  0.00000000D+00
  0.00000000D+00  0.28816976D-13  0.00000000D+00  0.00000000D+00 -0.42225894D-13
  0.00000000D+00  0.00000000D+00 -0.44225033D-13  0.00000000D+00  0.00000000D+00
  0.00000000D+00
END DATA
 TOTAL ENERGY =     -128.541492758618 THE VIRIAL(-V/T)=   2.00000000
