 HF dist. exp., base Def2TZVP                            
GAUSSIAN              5 MOL ORBITALS     59 PRIMITIVES        2 NUCLEI
  F    1    (CENTRE  1)   0.00000000  0.00000000  0.17325009  CHARGE =  9.0
  H    2    (CENTRE  2)   0.00000000  0.00000000 -1.55925083  CHARGE =  1.0
CENTRE ASSIGNMENTS    1  1  1  1  1  1  1  1  1  1  1  1  1  1  1  1  1  1  1  1
CENTRE ASSIGNMENTS    1  1  1  1  1  1  1  1  1  1  1  1  1  1  1  1  1  1  1  1
CENTRE ASSIGNMENTS    1  1  1  1  1  1  1  1  1  1  1  2  2  2  2  2  2  2  2
TYPE ASSIGNMENTS      1  1  1  1  1  1  1  1  1  1  1  2  2  2  2  3  3  3  3  4
TYPE ASSIGNMENTS      4  4  4  2  3  4  2  3  4  5  6  7  8  9 10  5  6  7  8  9
TYPE ASSIGNMENTS     10 11 12 13 17 14 15 18 19 16 20  1  1  1  1  1  2  3  4
EXPONENTS  0.3547910D+05 0.5318473D+04 0.1210481D+04 0.3428552D+03 0.1120194D+03
EXPONENTS  0.4071474D+02 0.1603968D+02 0.6503819D+01 0.1544048D+01 0.6122345D+00
EXPONENTS  0.2402798D+00 0.8023390D+02 0.1859401D+02 0.5686790D+01 0.1951101D+01
EXPONENTS  0.8023390D+02 0.1859401D+02 0.5686790D+01 0.1951101D+01 0.8023390D+02
EXPONENTS  0.1859401D+02 0.5686790D+01 0.1951101D+01 0.6697021D+00 0.6697021D+00
EXPONENTS  0.6697021D+00 0.2165130D+00 0.2165130D+00 0.2165130D+00 0.3107000D+01
EXPONENTS  0.3107000D+01 0.3107000D+01 0.3107000D+01 0.3107000D+01 0.3107000D+01
EXPONENTS  0.8550000D+00 0.8550000D+00 0.8550000D+00 0.8550000D+00 0.8550000D+00
EXPONENTS  0.8550000D+00 0.1917000D+01 0.1917000D+01 0.1917000D+01 0.1917000D+01
EXPONENTS  0.1917000D+01 0.1917000D+01 0.1917000D+01 0.1917000D+01 0.1917000D+01
EXPONENTS  0.1917000D+01 0.3406134D+02 0.5123575D+01 0.1164663D+01 0.3272304D+00
EXPONENTS  0.1030724D+00 0.8000000D+00 0.8000000D+00 0.8000000D+00
MO    1     MO 0.0        OCC NO =    2.0000000  ORB. ENERGY =  -26.290651
  0.44072742D+00  0.82303511D+00  0.14084705D+01  0.22098564D+01  0.30421808D+01
  0.33146593D+01  0.23548301D+01  0.75875099D+00  0.22556941D-01 -0.39930766D-02
  0.68597007D-03  0.00000000D+00  0.00000000D+00  0.00000000D+00  0.00000000D+00
  0.00000000D+00  0.00000000D+00  0.00000000D+00  0.00000000D+00 -0.53265456D-02
 -0.59580643D-02 -0.51592023D-02 -0.29047484D-02  0.00000000D+00  0.00000000D+00
  0.12937362D-02  0.00000000D+00  0.00000000D+00 -0.83937720D-04 -0.22688024D-03
 -0.22688024D-03  0.45376048D-03  0.00000000D+00  0.00000000D+00  0.00000000D+00
  0.32826225D-03  0.32826225D-03 -0.65652450D-03  0.00000000D+00  0.00000000D+00
  0.00000000D+00  0.00000000D+00  0.00000000D+00  0.43648343D-03  0.00000000D+00
  0.00000000D+00 -0.65472514D-03  0.00000000D+00  0.00000000D+00 -0.65472514D-03
  0.00000000D+00  0.15652736D-03  0.28250001D-03  0.41706443D-03  0.24276057D-03
 -0.98798031D-04  0.00000000D+00  0.00000000D+00  0.82089094D-03
MO    2     MO 0.0        OCC NO =    2.0000000  ORB. ENERGY =   -1.597838
 -0.10476752D+00 -0.19564779D+00 -0.33481457D+00 -0.52531602D+00 -0.72317202D+00
 -0.78794425D+00 -0.91122194D+00 -0.29360528D+00  0.34645102D+00  0.25241304D+00
  0.47918926D-01  0.00000000D+00  0.00000000D+00  0.00000000D+00  0.00000000D+00
  0.00000000D+00  0.00000000D+00  0.00000000D+00  0.00000000D+00 -0.19214190D+00
 -0.21492237D+00 -0.18610541D+00 -0.10478158D+00  0.00000000D+00  0.00000000D+00
 -0.44515700D-01  0.00000000D+00  0.00000000D+00 -0.11321245D-02 -0.15230459D-01
 -0.15230459D-01  0.30460918D-01  0.00000000D+00  0.00000000D+00  0.00000000D+00
 -0.76577786D-02 -0.76577786D-02  0.15315557D-01  0.00000000D+00  0.00000000D+00
  0.00000000D+00  0.00000000D+00  0.00000000D+00 -0.23372290D-01  0.00000000D+00
  0.00000000D+00  0.35058435D-01  0.00000000D+00  0.00000000D+00  0.35058435D-01
  0.00000000D+00  0.21327062D-01  0.38491006D-01  0.56825589D-01  0.14882660D-01
  0.40707811D-03  0.00000000D+00  0.00000000D+00  0.16159961D-01
MO    3     MO 0.0        OCC NO =    2.0000000  ORB. ENERGY =   -0.764805
 -0.25301774D-01 -0.47249722D-01 -0.80859055D-01 -0.12686591D+00 -0.17464893D+00
 -0.19029168D+00 -0.22480637D+00 -0.72434973D-01  0.99912749D-01  0.61721960D-01
  0.38942415D-01  0.00000000D+00  0.00000000D+00  0.00000000D+00  0.00000000D+00
  0.00000000D+00  0.00000000D+00  0.00000000D+00  0.00000000D+00  0.17671560D+01
  0.19766712D+01  0.17116376D+01  0.96369094D+00  0.00000000D+00  0.00000000D+00
  0.31117245D+00  0.00000000D+00  0.00000000D+00  0.34486391D-01  0.45534378D-01
  0.45534378D-01 -0.91068757D-01  0.00000000D+00  0.00000000D+00  0.00000000D+00
  0.16240806D-01  0.16240806D-01 -0.32481613D-01  0.00000000D+00  0.00000000D+00
  0.00000000D+00  0.00000000D+00  0.00000000D+00  0.37182859D-01  0.00000000D+00
  0.00000000D+00 -0.55774289D-01  0.00000000D+00  0.00000000D+00 -0.55774289D-01
  0.00000000D+00 -0.40699977D-01 -0.73455173D-01 -0.10844438D+00 -0.65125730D-01
 -0.37199255D-02  0.00000000D+00  0.00000000D+00 -0.21765940D-01
MO    4     MO 0.0        OCC NO =    2.0000000  ORB. ENERGY =   -0.647572
  0.00000000D+00  0.00000000D+00  0.00000000D+00  0.00000000D+00  0.00000000D+00
  0.00000000D+00  0.00000000D+00  0.00000000D+00  0.00000000D+00  0.00000000D+00
  0.00000000D+00  0.20918164D+01  0.23398235D+01  0.20260981D+01  0.11407394D+01
  0.00000000D+00  0.00000000D+00  0.00000000D+00  0.00000000D+00  0.00000000D+00
  0.00000000D+00  0.00000000D+00  0.00000000D+00  0.36947763D+00  0.00000000D+00
  0.00000000D+00  0.57995792D-01  0.00000000D+00  0.00000000D+00  0.00000000D+00
  0.00000000D+00  0.00000000D+00  0.00000000D+00 -0.59074856D-01  0.00000000D+00
  0.00000000D+00  0.00000000D+00  0.00000000D+00  0.00000000D+00 -0.38597883D-01
  0.00000000D+00 -0.14543856D-01  0.00000000D+00  0.00000000D+00 -0.14543856D-01
  0.00000000D+00  0.00000000D+00  0.58175424D-01  0.00000000D+00  0.00000000D+00
  0.00000000D+00  0.00000000D+00  0.00000000D+00  0.00000000D+00  0.00000000D+00
  0.00000000D+00  0.28147916D-01  0.00000000D+00  0.00000000D+00
MO    5     MO 0.0        OCC NO =    2.0000000  ORB. ENERGY =   -0.647572
  0.00000000D+00  0.00000000D+00  0.00000000D+00  0.00000000D+00  0.00000000D+00
  0.00000000D+00  0.00000000D+00  0.00000000D+00  0.00000000D+00  0.00000000D+00
  0.00000000D+00  0.00000000D+00  0.00000000D+00  0.00000000D+00  0.00000000D+00
  0.20918164D+01  0.23398235D+01  0.20260981D+01  0.11407394D+01  0.00000000D+00
  0.00000000D+00  0.00000000D+00  0.00000000D+00  0.00000000D+00  0.36947763D+00
  0.00000000D+00  0.00000000D+00  0.57995792D-01  0.00000000D+00  0.00000000D+00
  0.00000000D+00  0.00000000D+00  0.00000000D+00  0.00000000D+00 -0.59074856D-01
  0.00000000D+00  0.00000000D+00  0.00000000D+00  0.00000000D+00  0.00000000D+00
 -0.38597883D-01  0.00000000D+00 -0.14543856D-01  0.00000000D+00  0.00000000D+00
 -0.14543856D-01  0.00000000D+00  0.00000000D+00  0.58175424D-01  0.00000000D+00
  0.00000000D+00  0.00000000D+00  0.00000000D+00  0.00000000D+00  0.00000000D+00
  0.00000000D+00  0.00000000D+00  0.28147916D-01  0.00000000D+00
END DATA
 THE  HF ENERGY =   -100.063324316975 THE VIRIAL(-V/T)=   2.00036348
